 *******************************************************************************
 **                                                                           **
 **                              MOPAC v22.0.6                                **
 **                                                                           **
 *******************************************************************************
 **          Digital Object Identifier (DOI): 10.5281/zenodo.6511958          **
 **    Visit the DOI location for information on how to cite this program.    **
 *******************************************************************************

                              PM7 CALCULATION RESULTS

 *******************************************************************************
 *  CALCULATION DONE:                                Sun Oct 12 20:25:20 2025  *
 *  PM7        - The PM7 Hamiltonian to be used
 *  PDBOUT     - PRINT GEOMETRY IN PDB FORMAT
 *  RESIDUES   - DETERMINE THE SEQUENCE OF RESIDUES
 *
 *
 *
 *                 CHARGE ON SYSTEM = -1
 *
 *
 *
 *  EF         - USE EF ROUTINE FOR MINIMUM SEARCH
 *  T=         - A TIME OF 172800.0 SECONDS REQUESTED
 *  DUMP=N     - RESTART FILE WRITTEN EVERY 7200.0 SECONDS REQUESTED
 *  NOXYZ      - CARTESIAN COORDINATES NOT TO BE PRINTED
 *  PRNT       - EXTRA PRINTING IN EF ROUTINE
 *  GRAPH      - GENERATE FILE FOR GRAPHICS
 *  COMPFG     - PRINT HEAT OF FORMATION CALC'D IN COMPFG
 *******************************************************************************
PM7 CHARGE=-1 EF NOXYZ PRNT=2 PDBOUT COMPFG GRAPHF
 (1S,2S,5S,8S,9R)-2,5,9-trimethyl-11-oxotricyclo[6.3.0.01,5]undec-3-ene-3-carboxylic acid

  ATOM    CHEMICAL      BOND LENGTH      BOND ANGLE     TWIST ANGLE 
 NUMBER    SYMBOL       (ANGSTROMS)      (DEGREES)       (DEGREES) 
   (I)                     NA:I           NB:NA:I       NC:NB:NA:I       NA    NB    NC 
     1       O          0.00000000  *    0.0000000  *    0.0000000  *     0     0     0
     2       O          6.32421000  *    0.0000000  *    0.0000000  *     1     0     0
     3       O          2.28701300  *   61.8137170  *    0.0000000  *     2     1     0
     4       C          2.44129800  *   35.8638910  *  127.5257270  *     1     2     3
     5       C          1.55890300  *  126.2479210  * -167.7341870  *     4     1     2
     6       C          1.56574700  *  105.1278460  *   69.9158310  *     4     1     2
     7       C          1.56016400  *   94.7399950  *  -38.0699450  *     4     1     2
     8       C          1.52759800  *  105.7818570  * -138.6647160  *     5     4     1
     9       C          1.52396700  *  103.9874750  *   33.9176400  *     8     5     4
    10       C          1.54512100  *  105.7188600  *  -19.5833150  *     5     4     1
    11       C          1.22583800  *   66.4298940  *  120.8223750  *     1     2     3
    12       C          1.50228600  *  122.7013200  * -169.0158530  *    11     1     2
    13       C          1.50977100  *  102.4784430  * -116.5960150  *     6     4     1
    14       C          1.33384700  *  112.2788540  *   10.5527710  *    13     6     4
    15       C          1.52702900  *  116.5801430  *    3.0693640  *     6     4     1
    16       C          1.52563300  *  115.6743020  * -110.5112680  *     7     4     1
    17       C          1.52337400  *  112.7499910  *  157.3629920  *    10     5     4
    18       C          1.22392700  *   28.9752650  *   -8.5559890  *     3     2     1
    19       H          1.09285500  *  113.8056970  *  100.1907640  *     5     4     1
    20       H          1.09869000  *  109.6824730  *   10.7933860  *     7     4     1
    21       H          1.09656200  *  109.9417190  *  -83.9559410  *     8     5     4
    22       H          1.09403900  *  113.1680900  *  155.5879280  *     8     5     4
    23       H          1.09633600  *  110.0220830  *   80.6749870  *     9     8     5
    24       H          1.09582900  *  111.2398280  * -160.8603860  *     9     8     5
    25       H          1.09723500  *  110.6955350  *  -81.5421690  *    10     5     4
    26       H          1.09280300  *  111.0309730  *  -39.8796280  *    12    11     1
    27       H          1.09422700  *  108.7799660  *   81.9548480  *    12    11     1
    28       H          1.08236100  *  122.0141800  * -171.2314700  *    13     6     4
    29       H          1.09654900  *  110.9634450  * -178.3061120  *    15     6     4
    30       H          1.09592200  *  111.7292460  *  -58.5456790  *    15     6     4
    31       H          1.09544400  *  111.3650420  *   62.2997090  *    15     6     4
    32       H          1.09523100  *  112.1644970  *  -69.5956930  *    16     7     4
    33       H          1.09489000  *  110.9321440  *   52.3506770  *    16     7     4
    34       H          1.09562700  *  110.6513010  *  171.0552060  *    16     7     4
    35       H          1.09457500  *  110.8709920  *   62.0015790  *    17    10     5
    36       H          1.09502200  *  110.5588570  * -178.3095980  *    17    10     5
    37       H          1.09525000  *  111.4778750  *  -58.3296240  *    17    10     5


 General Reference for PM7:
 "Optimization of Parameters for Semiempirical Methods VI: More Modifications to the 
 NDDO Approximations and Re-optimization of Parameters", J. J. P. Stewart, J. Mol. Mod., 1:32, 19 (2013)
 https://link.springer.com/article/10.1007/s00894-012-1667-x

           Empirical Formula: C15 H19 O3  =    37 atoms



      MOLECULAR POINT GROUP   :   C1  


      RHF CALCULATION, NO. OF DOUBLY OCCUPIED LEVELS = 49


          Geometry optimization using EF

  HEAT OF FORMATION       -157.12122351581638    
 PARAMETERS        0.000   0.000   0.000   6.324   0.000   0.000   2.287   1.079
   0.000   2.441   0.626   2.226   1.559   2.203   3.356   1.566   1.835   1.220

   1.560   1.654   5.619   1.528   1.846   3.863   1.524   1.815   0.592   1.545

   1.845   5.941   1.226   1.159   2.109   1.502   2.142   3.333   1.510   1.789

   4.248   1.334   1.960   0.184   1.527   2.035   0.054   1.526   2.019   4.354

   1.523   1.968   2.747   1.224   0.506   6.134   1.093   1.986   1.749   1.099

   1.914   0.188   1.097   1.919   4.818   1.094   1.975   2.716   1.096   1.920

   1.408   1.096   1.942   3.476   1.097   1.932   4.860   1.093   1.938   5.587

   1.094   1.899   1.430   1.082   2.130   3.295   1.097   1.937   3.171   1.096

   1.950   5.261   1.095   1.944   1.087   1.095   1.958   5.069   1.095   1.936

   0.914   1.096   1.931   2.985   1.095   1.935   1.082   1.095   1.930   3.171

   1.095   1.946   5.265
 GRADIENT         -0.000  -0.000  -0.000 -38.843   0.000   0.000 112.570 -33.470
   0.000   8.824 -60.025  -5.769 -28.186 -50.815  -8.711  -8.639  31.906 -33.562

   5.143   8.138   8.399 -13.271 -10.710  -4.542 -13.263  -6.648  -5.186  -5.591

 -34.756   9.975  68.365  -0.768   6.387  -2.398  18.487  -1.428  26.773   2.380

 -13.493   7.707  22.563  -4.257   3.737   8.787  -1.613   0.734   1.790   4.994

  -6.605   3.737   1.488 -59.695 171.831   3.156  -8.571   5.198  -0.214 -16.105

   3.858  -0.295  -8.144  -0.647   1.213  -2.546   0.913  -2.215  -4.280  -3.173

  -1.464  -3.087  -3.298  -2.312 -12.412   3.900   1.049  -5.172  -3.944  -6.173

  -6.131  -4.780   3.874   3.933   1.563  -1.671   0.912   1.023  -1.139  -1.289

   2.197  -1.430   1.058  -1.003   2.075   0.122   1.053   1.277   0.690  -0.981

   0.682  -3.800   3.202  -3.363  -0.632  -1.066   0.530  -0.014  -1.818  -0.033

  -0.326  -1.286  -0.413

          DIAGONAL MATRIX USED AS START HESSIAN

*REMARK   3 HET = Not identified; C 15 H 19 O 3      =    37 atoms res:    1
 PM7 CHARGE=-1 EF NOXYZ PRNT=2 PDBOUT COMPFG GRAPHF
 (1S,2S,5S,8S,9R)-2,5,9-trimethyl-11-oxotricyclo[6.3.0.01,5]undec-3-ene-3-carboxylic acid

  O(HETATM    1  O1  HET A   1)   0.00000000 +1    0.0000000 +1    0.0000000 +1
  O(HETATM    2  O2  HET A   1)   6.32421000 +1    0.0000000 +1    0.0000000 +1     1     0     0
  O(HETATM    3  O3  HET A   1)   2.28701300 +1   61.8137170 +1    0.0000000 +1     2     1     0
  C(HETATM    4  C1  HET A   1)   2.44129800 +1   35.8638910 +1  127.5257270 +1     1     2     3
  C(HETATM    5  C2  HET A   1)   1.55890300 +1  126.2479210 +1 -167.7341870 +1     4     1     2
  C(HETATM    6  C3  HET A   1)   1.56574700 +1  105.1278460 +1   69.9158310 +1     4     1     2
  C(HETATM    7  C4  HET A   1)   1.56016400 +1   94.7399950 +1  -38.0699450 +1     4     1     2
  C(HETATM    8  C5  HET A   1)   1.52759800 +1  105.7818570 +1 -138.6647160 +1     5     4     1
  C(HETATM    9  C6  HET A   1)   1.52396700 +1  103.9874750 +1   33.9176400 +1     8     5     4
  C(HETATM   10  C7  HET A   1)   1.54512100 +1  105.7188600 +1  -19.5833150 +1     5     4     1
  C(HETATM   11  C8  HET A   1)   1.22583800 +1   66.4298940 +1  120.8223750 +1     1     2     3
  C(HETATM   12  C9  HET A   1)   1.50228600 +1  122.7013200 +1 -169.0158530 +1    11     1     2
  C(HETATM   13  C10 HET A   1)   1.50977100 +1  102.4784430 +1 -116.5960150 +1     6     4     1
  C(HETATM   14  C11 HET A   1)   1.33384700 +1  112.2788540 +1   10.5527710 +1    13     6     4
  C(HETATM   15  C12 HET A   1)   1.52702900 +1  116.5801430 +1    3.0693640 +1     6     4     1
  C(HETATM   16  C13 HET A   1)   1.52563300 +1  115.6743020 +1 -110.5112680 +1     7     4     1
  C(HETATM   17  C14 HET A   1)   1.52337400 +1  112.7499910 +1  157.3629920 +1    10     5     4
  C(HETATM   18  C15 HET A   1)   1.22392700 +1   28.9752650 +1   -8.5559890 +1     3     2     1
  H(HETATM   19  H2  HET A   1)   1.09285500 +1  113.8056970 +1  100.1907640 +1     5     4     1
  H(HETATM   20  H4  HET A   1)   1.09869000 +1  109.6824730 +1   10.7933860 +1     7     4     1
  H(HETATM   21 1H5  HET A   1)   1.09656200 +1  109.9417190 +1  -83.9559410 +1     8     5     4
  H(HETATM   22 2H5  HET A   1)   1.09403900 +1  113.1680900 +1  155.5879280 +1     8     5     4
  H(HETATM   23 1H6  HET A   1)   1.09633600 +1  110.0220830 +1   80.6749870 +1     9     8     5
  H(HETATM   24 2H6  HET A   1)   1.09582900 +1  111.2398280 +1 -160.8603860 +1     9     8     5
  H(HETATM   25  H7  HET A   1)   1.09723500 +1  110.6955350 +1  -81.5421690 +1    10     5     4
  H(HETATM   26 1H9  HET A   1)   1.09280300 +1  111.0309730 +1  -39.8796280 +1    12    11     1
  H(HETATM   27 2H9  HET A   1)   1.09422700 +1  108.7799660 +1   81.9548480 +1    12    11     1
  H(HETATM   28  H10 HET A   1)   1.08236100 +1  122.0141800 +1 -171.2314700 +1    13     6     4
  H(HETATM   29 1H12 HET A   1)   1.09654900 +1  110.9634450 +1 -178.3061120 +1    15     6     4
  H(HETATM   30 2H12 HET A   1)   1.09592200 +1  111.7292460 +1  -58.5456790 +1    15     6     4
  H(HETATM   31 3H12 HET A   1)   1.09544400 +1  111.3650420 +1   62.2997090 +1    15     6     4
  H(HETATM   32 1H13 HET A   1)   1.09523100 +1  112.1644970 +1  -69.5956930 +1    16     7     4
  H(HETATM   33 2H13 HET A   1)   1.09489000 +1  110.9321440 +1   52.3506770 +1    16     7     4
  H(HETATM   34 3H13 HET A   1)   1.09562700 +1  110.6513010 +1  171.0552060 +1    16     7     4
  H(HETATM   35 1H14 HET A   1)   1.09457500 +1  110.8709920 +1   62.0015790 +1    17    10     5
  H(HETATM   36 2H14 HET A   1)   1.09502200 +1  110.5588570 +1 -178.3095980 +1    17    10     5
  H(HETATM   37 3H14 HET A   1)   1.09525000 +1  111.4778750 +1  -58.3296240 +1    17    10     5

 XPARAM 
  1  1    0.0000  1  2    0.0000  1  3    0.0000  2  1    6.3242  2  2    0.0000
  2  3    0.0000  3  1    2.2870  3  2    1.0789  3  3    0.0000  4  1    2.4413
  4  2    0.6259  4  3    2.2257  5  1    1.5589  5  2    2.2034  5  3    3.3557
  6  1    1.5657  6  2    1.8348  6  3    1.2203  7  1    1.5602  7  2    1.6535
  7  3    5.6187  8  1    1.5276  8  2    1.8462  8  3    3.8630  9  1    1.5240
  9  2    1.8149  9  3    0.5920 10  1    1.5451 10  2    1.8451 10  3    5.9414
 11  1    1.2258 11  2    1.1594 11  3    2.1087 12  1    1.5023 12  2    2.1415
 12  3    3.3333 13  1    1.5098 13  2    1.7886 13  3    4.2482 14  1    1.3338
 14  2    1.9596 14  3    0.1842 15  1    1.5270 15  2    2.0347 15  3    0.0536
 16  1    1.5256 16  2    2.0189 16  3    4.3544 17  1    1.5234 17  2    1.9679
 17  3    2.7465 18  1    1.2239 18  2    0.5057 18  3    6.1339 19  1    1.0929
 19  2    1.9863 19  3    1.7487 20  1    1.0987 20  2    1.9143 20  3    0.1884
 21  1    1.0966 21  2    1.9188 21  3    4.8179 22  1    1.0940 22  2    1.9752
 22  3    2.7155 23  1    1.0963 23  2    1.9202 23  3    1.4080 24  1    1.0958
 24  2    1.9415 24  3    3.4756 25  1    1.0972 25  2    1.9320 25  3    4.8600
 26  1    1.0928 26  2    1.9379 26  3    5.5872 27  1    1.0942 27  2    1.8986
 27  3    1.4304 28  1    1.0824 28  2    2.1295 28  3    3.2946 29  1    1.0965
 29  2    1.9367 29  3    3.1712 30  1    1.0959 30  2    1.9500 30  3    5.2614
 31  1    1.0954 31  2    1.9437 31  3    1.0873 32  1    1.0952 32  2    1.9576
 32  3    5.0685 33  1    1.0949 33  2    1.9361 33  3    0.9137 34  1    1.0956
 34  2    1.9312 34  3    2.9855 35  1    1.0946 35  2    1.9351 35  3    1.0821
 36  1    1.0950 36  2    1.9296 36  3    3.1711 37  1    1.0953 37  2    1.9457
 37  3    5.2651
 grad
      -0.00000   -0.00000   -0.00000  -38.84314    0.00000    0.00000  112.56980  -33.46971
       0.00000    8.82419  -60.02549   -5.76887  -28.18578  -50.81471   -8.71056   -8.63933
      31.90568  -33.56161    5.14345    8.13782    8.39877  -13.27054  -10.71045   -4.54173
     -13.26335   -6.64846   -5.18557   -5.59058  -34.75644    9.97489   68.36482   -0.76756
       6.38696   -2.39774   18.48716   -1.42783   26.77285    2.38044  -13.49340    7.70690
      22.56344   -4.25651    3.73713    8.78718   -1.61272    0.73397    1.79035    4.99430
      -6.60492    3.73662    1.48837  -59.69456  171.83112    3.15603   -8.57056    5.19766
      -0.21430  -16.10505    3.85828   -0.29520   -8.14401   -0.64667    1.21253   -2.54591
       0.91340   -2.21497   -4.27989   -3.17284   -1.46378   -3.08694   -3.29751   -2.31151
     -12.41225    3.89974    1.04915   -5.17165   -3.94406   -6.17344   -6.13073   -4.78020
       3.87401    3.93273    1.56298   -1.67106    0.91170    1.02300   -1.13874   -1.28888
       2.19682   -1.43035    1.05805   -1.00329    2.07488    0.12210    1.05256    1.27723
       0.69009   -0.98096    0.68220   -3.79995    3.20209   -3.36344   -0.63168   -1.06568
       0.53045   -0.01368   -1.81795   -0.03312   -0.32560   -1.28617   -0.41322
 CYCLE:     1 TIME:   0.023 TIME LEFT:  2.00D  GRAD.:   259.825 HEAT: -157.1212

          HESSIAN HAS  0 NEGATIVE EIGENVALUE(S)
  MIN SEARCH, CORRECT HESSIAN, TRYING PURE NR STEP
 LAMBDA THAT MINIMIZES ALONG ALL MODES =        0.000000000
 PURE NR-STEP HAS LENGTH   0.46797
 LAMBDA THAT MINIMIZES ALONG ALL MODES =      -91.303624024
 P-RFO-STEP   HAS LENGTH   0.38590
 LAMBDA THAT MINIMIZES ALONG ALL MODES =     -644.094912789
 QA/TRIM-STEP HAS LENGTH   0.20000

  HEAT OF FORMATION       -138.42603850791056    
 PARAMETERS        0.003  -0.003  -0.001   6.351  -0.021   0.022   2.224   1.099
   0.001   2.436   0.679   2.236   1.577   2.255   3.359   1.575   1.805   1.255

   1.554   1.662   5.604   1.536   1.865   3.863   1.537   1.817   0.593   1.545

   1.892   5.924   1.186   1.163   2.098   1.505   2.132   3.328   1.493   1.797

   4.259   1.335   1.935   0.182   1.531   2.021   0.049   1.525   2.028   4.342

   1.529   1.969   2.739   1.254   0.374   6.131   1.099   1.982   1.747   1.110

   1.910   0.187   1.101   1.923   4.814   1.096   1.976   2.716   1.100   1.923

   1.408   1.098   1.947   3.476   1.104   1.933   4.857   1.095   1.946   5.592

   1.099   1.903   1.424   1.080   2.130   3.294   1.096   1.938   3.170   1.096

   1.953   5.261   1.096   1.944   1.083   1.095   1.961   5.065   1.096   1.937

   0.911   1.098   1.930   2.987   1.096   1.936   1.079   1.095   1.933   3.169

   1.095   1.951   5.263
 GRADIENT         -0.000  -0.000  -0.000  41.724   0.000   0.000-108.488  83.472
   0.000  45.927 118.398 115.835  80.342 178.843-100.283  36.015 -53.114 146.959

  -0.188 -30.963 -87.301   7.321  19.262 -33.161  -3.702  17.722 -21.697   7.441

 128.509 -75.956-109.006  32.954-100.606 -43.976 -71.800  41.824 -69.345  44.478

 -24.598 -50.936 -45.637  -0.679   7.955   5.320 -10.876   8.613  -5.931  12.075

  13.017  -5.932  17.203 109.867-165.615   2.676  -3.792   7.022  -0.559  -7.457

   0.039  -0.294  -3.420  -0.060  -0.435  -0.122   1.112  -1.474  -2.413  -0.717

  -4.000   1.522  -3.466  -5.540   2.134  -3.973 -10.296   2.487  -3.993  -1.117

   5.261  -7.994  -5.744   7.320  -0.538   0.188   1.462   1.599  -1.047  -0.703

   3.691  -0.914   1.494  -0.620   1.221   0.219   1.604   1.148   1.559  -0.096

   0.356  -1.396   3.571  -2.426   1.064   1.244   0.341   0.700  -0.487  -0.238

  -0.046   0.223  -0.054
       HoF         ACTUAL,  PREDICTED ENERGY CHANGE, RATIO
  -138.4260385    18.6951850         -37.4693969   -0.4989454
 UNACCEPTABLE RATIO, REJECTING STEP, REDUCING DMAX TO 0.1000
  MIN SEARCH, CORRECT HESSIAN, TRYING PURE NR STEP
 LAMBDA THAT MINIMIZES ALONG ALL MODES =        0.000000000
 PURE NR-STEP HAS LENGTH   0.46797
 LAMBDA THAT MINIMIZES ALONG ALL MODES =      -91.303624024
 P-RFO-STEP   HAS LENGTH   0.38590
 LAMBDA THAT MINIMIZES ALONG ALL MODES =    -1863.312824778
 QA/TRIM-STEP HAS LENGTH   0.10000

  HEAT OF FORMATION       -163.40314424879034    
 PARAMETERS        0.002  -0.001  -0.001   6.340  -0.010   0.010   2.251   1.088
   0.001   2.438   0.651   2.230   1.569   2.228   3.357   1.571   1.821   1.234

   1.556   1.658   5.613   1.532   1.855   3.863   1.532   1.816   0.592   1.544

   1.868   5.934   1.203   1.161   2.104   1.504   2.137   3.331   1.500   1.793

   4.253   1.335   1.948   0.183   1.530   2.028   0.052   1.525   2.023   4.349

   1.527   1.968   2.743   1.241   0.442   6.132   1.096   1.984   1.748   1.105

   1.912   0.188   1.099   1.921   4.816   1.095   1.976   2.716   1.099   1.922

   1.408   1.097   1.944   3.476   1.101   1.932   4.859   1.094   1.942   5.589

   1.097   1.901   1.428   1.081   2.130   3.294   1.096   1.937   3.171   1.096

   1.951   5.261   1.096   1.944   1.085   1.095   1.959   5.067   1.096   1.936

   0.912   1.097   1.931   2.986   1.096   1.935   1.081   1.095   1.931   3.170

   1.095   1.948   5.264
 GRADIENT         -0.000  -0.000  -0.000  29.975   0.000   0.000  36.311  69.921
   0.000  26.698  80.697  73.921  40.752  93.025 -59.278   9.164 -20.578  67.464

  -0.381 -12.565 -36.484  -1.029   9.581 -17.259  -7.942   7.667 -10.193  -2.564

  66.440 -43.139 -38.152  36.023 -59.790 -26.013 -44.076  24.796 -54.604 -10.329

 -16.747 -33.813 -49.048  -4.937   6.706   7.176  -6.214   4.234  -2.061   8.466

   4.942  -2.016  10.710 -21.017  -4.879   3.559  -5.867   6.290  -0.507 -11.677

   2.041  -0.149  -5.544  -0.384   0.382  -1.116   1.025  -1.759  -2.789  -2.023

  -2.367  -0.564  -3.316  -3.923  -4.397  -0.382  -4.621  -0.927  -4.003  -3.470

   0.219  -6.314  -0.991   5.482   0.411  -0.816   1.179   1.346  -1.069  -1.036

   2.948  -1.190   1.410  -0.732   1.681   0.079   1.291   1.234   1.179  -0.598

   0.523  -2.639   3.418  -3.015   0.390   0.183   0.438   0.402  -1.054  -0.181

  -0.228  -0.466  -0.174
       HoF         ACTUAL,  PREDICTED ENERGY CHANGE, RATIO
  -163.4031442    -6.2819207         -21.7569072    0.2887322
     STEPSIZE USED IS  0.10000
 CALCULATED STEP
     0.002390 -0.001284 -0.000736  0.015956 -0.010396  0.010457 -0.035642  0.009583
     0.000594 -0.002826  0.025480  0.004535  0.010477  0.024837  0.001165  0.005630
    -0.014242  0.014024 -0.004231  0.004203 -0.005925  0.004339  0.008873 -0.000124
     0.007919  0.000926  0.000251 -0.000641  0.022986 -0.007130 -0.022941  0.001700
    -0.004384  0.001431 -0.004459 -0.002316 -0.010131  0.004090  0.004313  0.001195
    -0.011974 -0.000807  0.002803 -0.006635 -0.001956 -0.000917  0.004523 -0.005125
     0.003370  0.000638 -0.003318  0.016662 -0.063660 -0.001394  0.003626 -0.001952
    -0.000851  0.006736 -0.002248 -0.000764  0.002475  0.002214 -0.001499  0.001209
     0.000394  0.000126  0.002217  0.001401 -0.000202  0.001145  0.002595  0.000195
     0.003956  0.000313 -0.001427  0.001196  0.004035  0.002067  0.002850  0.002094
    -0.002777 -0.001193  0.000444 -0.000241 -0.000156  0.000599 -0.000370 -0.000052
     0.001256 -0.000238  0.000462  0.000306 -0.001933 -0.000481  0.001634 -0.001555
     0.000644  0.000201 -0.001253  0.001548 -0.000425  0.000711  0.001052  0.000330
    -0.001179  0.000165  0.001801 -0.000902 -0.000391  0.002732 -0.000728
     NEW TRUST RADIUS =  0.10000

     HESSIAN IS BEING UPDATED USING THE BFGS UPDATE

*REMARK   3 HET = Not identified; C 15 H 19 O 3      =    37 atoms res:    1
 PM7 CHARGE=-1 EF NOXYZ PRNT=2 PDBOUT COMPFG GRAPHF
 (1S,2S,5S,8S,9R)-2,5,9-trimethyl-11-oxotricyclo[6.3.0.01,5]undec-3-ene-3-carboxylic acid

  O(HETATM    1  O1  HET A   1)   0.00239000 +1   -0.0012842 +1   -0.0007364 +1
  O(HETATM    2  O2  HET A   1)   6.34016581 +1   -0.5956370 +1    0.5991281 +1     1     0     0
  O(HETATM    3  O3  HET A   1)   2.25137140 +1   62.3627806 +1    0.0340201 +1     2     1     0
  C(HETATM    4  C1  HET A   1)   2.43847237 +1   37.3237760 +1  127.7855908 +1     1     2     3
  C(HETATM    5  C2  HET A   1)   1.56937968 +1  127.6709754 +1 -167.6674333 +1     4     1     2
  C(HETATM    6  C3  HET A   1)   1.57137709 +1  104.3118136 +1   70.7193660 +1     4     1     2
  C(HETATM    7  C4  HET A   1)   1.55593320 +1   94.9807984 +1  -38.4094189 +1     4     1     2
  C(HETATM    8  C5  HET A   1)   1.53193691 +1  106.2902611 +1 -138.6718082 +1     5     4     1
  C(HETATM    9  C6  HET A   1)   1.53188579 +1  104.0405369 +1   33.9320237 +1     8     5     4
  C(HETATM   10  C7  HET A   1)   1.54447990 +1  107.0358870 +1  -19.9918397 +1     5     4     1
  C(HETATM   11  C8  HET A   1)   1.20289700 +1   66.5273001 +1  120.5711801 +1     1     2     3
  C(HETATM   12  C9  HET A   1)   1.50371726 +1  122.4458382 +1 -169.1485661 +1    11     1     2
  C(HETATM   13  C10 HET A   1)   1.49963988 +1  102.7128005 +1 -116.3488863 +1     6     4     1
  C(HETATM   14  C11 HET A   1)   1.33504174 +1  111.5927835 +1   10.5065549 +1    13     6     4
  C(HETATM   15  C12 HET A   1)   1.52983185 +1  116.1999853 +1    2.9573189 +1     6     4     1
  C(HETATM   16  C13 HET A   1)   1.52471580 +1  115.9334255 +1 -110.8049281 +1     7     4     1
  C(HETATM   17  C14 HET A   1)   1.52674408 +1  112.7865456 +1  157.1728716 +1    10     5     4
  C(HETATM   18  C15 HET A   1)   1.24058875 +1   25.3278017 +1   -8.6358861 +1     3     2     1
  H(HETATM   19  H2  HET A   1)   1.09648118 +1  113.6938789 +1  100.1419881 +1     5     4     1
  H(HETATM   20  H4  HET A   1)   1.10542555 +1  109.5536597 +1   10.7496119 +1     7     4     1
  H(HETATM   21 1H5  HET A   1)   1.09903660 +1  110.0685814 +1  -84.0418008 +1     8     5     4
  H(HETATM   22 2H5  HET A   1)   1.09524827 +1  113.1906927 +1  155.5951417 +1     8     5     4
  H(HETATM   23 1H6  HET A   1)   1.09855301 +1  110.1023533 +1   80.6633884 +1     9     8     5
  H(HETATM   24 2H6  HET A   1)   1.09697386 +1  111.3885221 +1 -160.8492268 +1     9     8     5
  H(HETATM   25  H7  HET A   1)   1.10119070 +1  110.7134934 +1  -81.6239516 +1    10     5     4
  H(HETATM   26 1H9  HET A   1)   1.09399893 +1  111.2621842 +1  -39.7611725 +1    12    11     1
  H(HETATM   27 2H9  HET A   1)   1.09707678 +1  108.8999550 +1   81.7957569 +1    12    11     1
  H(HETATM   28  H10 HET A   1)   1.08116834 +1  122.0395915 +1 -171.2452503 +1    13     6     4
  H(HETATM   29 1H12 HET A   1)   1.09639338 +1  110.9977486 +1 -178.3273262 +1    15     6     4
  H(HETATM   30 2H12 HET A   1)   1.09586982 +1  111.8012106 +1  -58.5592956 +1    15     6     4
  H(HETATM   31 3H12 HET A   1)   1.09590641 +1  111.3825898 +1   62.1889742 +1    15     6     4
  H(HETATM   32 1H13 HET A   1)   1.09475004 +1  112.2581178 +1  -69.6847889 +1    16     7     4
  H(HETATM   33 2H13 HET A   1)   1.09553425 +1  110.9436701 +1   52.2788750 +1    16     7     4
  H(HETATM   34 3H13 HET A   1)   1.09717472 +1  110.6269217 +1  171.0959429 +1    16     7     4
  H(HETATM   35 1H14 HET A   1)   1.09562663 +1  110.8899058 +1   61.9340214 +1    17    10     5
  H(HETATM   36 2H14 HET A   1)   1.09518748 +1  110.6620657 +1 -178.3612971 +1    17    10     5
  H(HETATM   37 3H14 HET A   1)   1.09485888 +1  111.6344139 +1  -58.3713435 +1    17    10     5

 XPARAM 
  1  1    0.0024  1  2   -0.0013  1  3   -0.0007  2  1    6.3402  2  2   -0.0104
  2  3    0.0105  3  1    2.2514  3  2    1.0884  3  3    0.0006  4  1    2.4385
  4  2    0.6514  4  3    2.2303  5  1    1.5694  5  2    2.2283  5  3    3.3568
  6  1    1.5714  6  2    1.8206  6  3    1.2343  7  1    1.5559  7  2    1.6577
  7  3    5.6128  8  1    1.5319  8  2    1.8551  8  3    3.8629  9  1    1.5319
  9  2    1.8158  9  3    0.5922 10  1    1.5445 10  2    1.8681 10  3    5.9343
 11  1    1.2029 11  2    1.1611 11  3    2.1044 12  1    1.5037 12  2    2.1371
 12  3    3.3310 13  1    1.4996 13  2    1.7927 13  3    4.2525 14  1    1.3350
 14  2    1.9477 14  3    0.1834 15  1    1.5298 15  2    2.0281 15  3    0.0516
 16  1    1.5247 16  2    2.0234 16  3    4.3493 17  1    1.5267 17  2    1.9685
 17  3    2.7432 18  1    1.2406 18  2    0.4421 18  3    6.1325 19  1    1.0965
 19  2    1.9843 19  3    1.7478 20  1    1.1054 20  2    1.9121 20  3    0.1876
 21  1    1.0990 21  2    1.9211 21  3    4.8164 22  1    1.0952 22  2    1.9756
 22  3    2.7156 23  1    1.0986 23  2    1.9216 23  3    1.4078 24  1    1.0970
 24  2    1.9441 24  3    3.4758 25  1    1.1012 25  2    1.9323 25  3    4.8586
 26  1    1.0940 26  2    1.9419 26  3    5.5892 27  1    1.0971 27  2    1.9007
 27  3    1.4276 28  1    1.0812 28  2    2.1300 28  3    3.2944 29  1    1.0964
 29  2    1.9373 29  3    3.1708 30  1    1.0959 30  2    1.9513 30  3    5.2611
 31  1    1.0959 31  2    1.9440 31  3    1.0854 32  1    1.0948 32  2    1.9593
 32  3    5.0670 33  1    1.0955 33  2    1.9363 33  3    0.9124 34  1    1.0972
 34  2    1.9308 34  3    2.9862 35  1    1.0956 35  2    1.9354 35  3    1.0810
 36  1    1.0952 36  2    1.9314 36  3    3.1702 37  1    1.0949 37  2    1.9484
 37  3    5.2644
 grad
      -0.00000   -0.00001   -0.00000   29.97463    0.00000    0.00000   36.31051   69.92120
       0.00000   26.69806   80.69735   73.92067   40.75192   93.02535  -59.27810    9.16377
     -20.57841   67.46439   -0.38118  -12.56547  -36.48448   -1.02882    9.58134  -17.25919
      -7.94184    7.66708  -10.19289   -2.56434   66.43953  -43.13943  -38.15248   36.02305
     -59.79014  -26.01316  -44.07577   24.79621  -54.60371  -10.32863  -16.74701  -33.81269
     -49.04788   -4.93719    6.70626    7.17642   -6.21420    4.23410   -2.06112    8.46600
       4.94182   -2.01552   10.70957  -21.01686   -4.87940    3.55871   -5.86695    6.29045
      -0.50660  -11.67672    2.04091   -0.14895   -5.54420   -0.38420    0.38240   -1.11608
       1.02473   -1.75864   -2.78916   -2.02341   -2.36655   -0.56362   -3.31636   -3.92307
      -4.39693   -0.38196   -4.62068   -0.92713   -4.00299   -3.46956    0.21923   -6.31387
      -0.99148    5.48209    0.41050   -0.81611    1.17905    1.34627   -1.06861   -1.03591
       2.94789   -1.19039    1.41016   -0.73171    1.68139    0.07913    1.29147    1.23423
       1.17924   -0.59780    0.52300   -2.63894    3.41761   -3.01533    0.38963    0.18252
       0.43814    0.40150   -1.05396   -0.18056   -0.22836   -0.46576   -0.17358
 CYCLE:     2 TIME:   0.031 TIME LEFT:  2.00D  GRAD.:   254.788 HEAT: -163.4031

          HESSIAN HAS  0 NEGATIVE EIGENVALUE(S)
  MIN SEARCH, CORRECT HESSIAN, TRYING PURE NR STEP
 LAMBDA THAT MINIMIZES ALONG ALL MODES =        0.000000000
 PURE NR-STEP HAS LENGTH   0.58857
 LAMBDA THAT MINIMIZES ALONG ALL MODES =      -60.705094691
 P-RFO-STEP   HAS LENGTH   0.44333
 LAMBDA THAT MINIMIZES ALONG ALL MODES =    -1062.534181474
 QA/TRIM-STEP HAS LENGTH   0.10000

  HEAT OF FORMATION       -152.55092521775805    
 PARAMETERS        0.008  -0.002  -0.004   6.345  -0.007   0.024   2.219   1.070
   0.000   2.429   0.640   2.196   1.562   2.212   3.385   1.573   1.823   1.207

   1.550   1.673   5.625   1.533   1.863   3.869   1.540   1.816   0.595   1.541

   1.863   5.949   1.200   1.151   2.130   1.511   2.157   3.314   1.508   1.805

   4.261   1.347   1.962   0.183   1.531   2.023   0.051   1.520   2.033   4.339

   1.526   1.974   2.733   1.256   0.410   6.128   1.101   1.981   1.747   1.114

   1.910   0.186   1.102   1.924   4.814   1.096   1.977   2.716   1.101   1.924

   1.408   1.097   1.948   3.477   1.104   1.934   4.859   1.094   1.948   5.591

   1.099   1.905   1.425   1.078   2.131   3.294   1.096   1.938   3.170   1.095

   1.953   5.261   1.096   1.945   1.082   1.094   1.962   5.064   1.096   1.937

   0.910   1.099   1.930   2.987   1.096   1.936   1.079   1.095   1.934   3.169

   1.094   1.952   5.263
 GRADIENT         -0.000  -0.000  -0.000   6.862   0.000   0.000-112.663 -14.671
   0.000-118.970 175.404-190.952 -18.421-285.700 207.482 -32.604 -32.755-133.431

 -15.803  17.628   5.463  26.055 112.888  18.517  -9.755  51.429  54.793  15.762

-115.839 135.583  98.227-208.653 192.859   8.221 178.695 -64.304   9.090 -60.151

  48.186  35.980 -18.139  19.523  10.992   3.067 -10.545  -2.417   0.608   2.989

  -1.374   1.785   6.680 103.663-116.142   2.352  -4.138   5.453  -1.895 -10.008

   4.494   3.395  -2.972  -0.049  -0.514  -0.137   1.318  -1.178   4.999  -5.099

   5.275   3.425  -3.478  -6.051 -20.909  11.981  21.891  -5.750   0.024  -3.776

 -18.840  10.502  26.636   4.102   2.912  -1.595   0.775   1.791  -0.782  -1.407

   3.482  -0.880   1.318  -0.637   1.086  -0.800   1.262   1.397   0.944  -1.277

   0.063  -2.845   3.741  -3.095   0.720   0.501   0.435  -0.040  -0.919   0.314

  -1.150  -0.240  -0.547
       HoF         ACTUAL,  PREDICTED ENERGY CHANGE, RATIO
  -152.5509252    10.8522190         -14.8303092   -0.7317595
 UNACCEPTABLE RATIO, REJECTING STEP, REDUCING DMAX TO 0.0500
  MIN SEARCH, CORRECT HESSIAN, TRYING PURE NR STEP
 LAMBDA THAT MINIMIZES ALONG ALL MODES =        0.000000000
 PURE NR-STEP HAS LENGTH   0.58857
 LAMBDA THAT MINIMIZES ALONG ALL MODES =      -60.705094691
 P-RFO-STEP   HAS LENGTH   0.44333
 LAMBDA THAT MINIMIZES ALONG ALL MODES =    -2711.322757977
 QA/TRIM-STEP HAS LENGTH   0.05000

  HEAT OF FORMATION       -166.60563754812756    
 PARAMETERS        0.005  -0.001  -0.002   6.341  -0.007   0.016   2.237   1.077
   0.000   2.433   0.642   2.213   1.563   2.216   3.370   1.571   1.824   1.220

   1.553   1.665   5.619   1.532   1.858   3.866   1.536   1.816   0.594   1.543

   1.863   5.942   1.205   1.156   2.117   1.508   2.148   3.323   1.506   1.799

   4.256   1.342   1.957   0.183   1.530   2.026   0.051   1.522   2.028   4.345

   1.526   1.972   2.739   1.247   0.432   6.131   1.098   1.983   1.747   1.109

   1.911   0.187   1.100   1.923   4.816   1.096   1.976   2.716   1.100   1.923

   1.408   1.097   1.946   3.476   1.102   1.933   4.859   1.094   1.945   5.590

   1.098   1.903   1.427   1.080   2.131   3.294   1.096   1.938   3.171   1.095

   1.952   5.261   1.096   1.945   1.084   1.094   1.960   5.066   1.096   1.937

   0.912   1.098   1.931   2.987   1.096   1.936   1.080   1.095   1.933   3.170

   1.094   1.950   5.264
 GRADIENT         -0.000  -0.000  -0.000  13.467   0.000   0.000 -23.170  19.672
   0.000 -39.312  94.854 -57.096  12.980 -86.009  75.122 -12.985 -24.782 -40.754

  -8.410   2.637 -14.864  12.622  63.851   2.466  -9.565  30.668  24.878   1.457

 -19.841  41.743  31.703 -69.765  64.212 -11.654  55.336 -21.189 -12.780 -29.953

  17.508   6.288 -25.054   8.454   8.568   5.290  -7.672   0.477  -0.547   5.568

   0.060   0.724   7.143  30.085 -38.786   2.714  -5.203   5.653  -1.132 -10.860

   3.426   1.446  -4.419  -0.268  -0.005  -0.734   1.150  -1.505   1.133  -3.658

   1.565   1.216  -3.370  -4.866 -12.419   5.786   7.784  -4.182  -1.761  -4.781

  -8.511   1.293  11.369   4.593   1.845  -1.330   0.892   1.549  -0.930  -1.308

   3.111  -1.077   1.318  -0.700   1.438  -0.444   1.217   1.341   0.988  -0.996

   0.296  -2.856   3.574  -3.111   0.419   0.096   0.440   0.102  -1.041   0.067

  -0.756  -0.426  -0.389
       HoF         ACTUAL,  PREDICTED ENERGY CHANGE, RATIO
  -166.6056375    -3.2024933          -8.8932404    0.3601042
     STEPSIZE USED IS  0.05000
 CALCULATED STEP
     0.002863 -0.000131 -0.001646  0.000537  0.003119  0.005600 -0.014215 -0.011042
    -0.000276 -0.005348 -0.008929 -0.016885 -0.006288 -0.011921  0.013224 -0.000162
     0.003071 -0.014399 -0.002951  0.007442  0.006465  0.000075  0.002882  0.002961
     0.003987  0.000048  0.001359 -0.001943 -0.005417  0.007697  0.001699 -0.005554
     0.012426  0.004184  0.011319 -0.007815  0.006476  0.006297  0.003798  0.007350
     0.009187 -0.000327  0.000092 -0.001815 -0.000178 -0.002580  0.004640 -0.004413
    -0.000788  0.003039 -0.004535  0.006605 -0.009801 -0.001813  0.001956 -0.001331
    -0.000502  0.004074 -0.000665 -0.000558  0.001161  0.001474 -0.000848  0.000315
     0.000482  0.000011  0.001087  0.001215  0.000095  0.000086  0.002034  0.000552
     0.001302  0.001044  0.000375 -0.000150  0.002781  0.000845  0.000675  0.002315
    -0.000789 -0.001645  0.000698 -0.000320 -0.000519  0.000517 -0.000257 -0.000390
     0.000581 -0.000202 -0.000098  0.000640 -0.001259 -0.000680  0.001006 -0.001072
     0.000018  0.000565 -0.000832  0.000654 -0.000195  0.000447  0.000243  0.000445
    -0.000795 -0.000291  0.001317 -0.000586 -0.000627  0.001667 -0.000553
     NEW TRUST RADIUS =  0.05000
*REMARK   3 HET = Not identified; C 15 H 19 O 3      =    37 atoms res:    1
 PM7 CHARGE=-1 EF NOXYZ PRNT=2 PDBOUT COMPFG GRAPHF
 (1S,2S,5S,8S,9R)-2,5,9-trimethyl-11-oxotricyclo[6.3.0.01,5]undec-3-ene-3-carboxylic acid

  O(HETATM    1  O1  HET A   1)   0.00525288 +1   -0.0014153 +1   -0.0023821 +1
  O(HETATM    2  O2  HET A   1)   6.34070271 +1   -0.4169060 +1    0.9199669 +1     1     0     0
  O(HETATM    3  O3  HET A   1)   2.23715608 +1   61.7301377 +1    0.0181958 +1     2     1     0
  C(HETATM    4  C1  HET A   1)   2.43312400 +1   36.8121597 +1  126.8181288 +1     1     2     3
  C(HETATM    5  C2  HET A   1)   1.56309120 +1  126.9879313 +1 -166.9097261 +1     4     1     2
  C(HETATM    6  C3  HET A   1)   1.57121462 +1  104.4877677 +1   69.8943417 +1     4     1     2
  C(HETATM    7  C4  HET A   1)   1.55298196 +1   95.4072218 +1  -38.0389795 +1     4     1     2
  C(HETATM    8  C5  HET A   1)   1.53201169 +1  106.4553882 +1 -138.5021473 +1     5     4     1
  C(HETATM    9  C6  HET A   1)   1.53587275 +1  104.0433122 +1   34.0099006 +1     8     5     4
  C(HETATM   10  C7  HET A   1)   1.54253709 +1  106.7255223 +1  -19.5508451 +1     5     4     1
  C(HETATM   11  C8  HET A   1)   1.20459638 +1   66.2090938 +1  121.2831408 +1     1     2     3
  C(HETATM   12  C9  HET A   1)   1.50790122 +1  123.0943849 +1 -169.5963605 +1    11     1     2
  C(HETATM   13  C10 HET A   1)   1.50611619 +1  103.0735862 +1 -116.1312689 +1     6     4     1
  C(HETATM   14  C11 HET A   1)   1.34239128 +1  112.1191327 +1   10.4877981 +1    13     6     4
  C(HETATM   15  C12 HET A   1)   1.52992369 +1  116.0960190 +1    2.9470937 +1     6     4     1
  C(HETATM   16  C13 HET A   1)   1.52213565 +1  116.1992974 +1 -111.0577643 +1     7     4     1
  C(HETATM   17  C14 HET A   1)   1.52595594 +1  112.9606517 +1  156.9130547 +1    10     5     4
  C(HETATM   18  C15 HET A   1)   1.24719349 +1   24.7662699 +1   -8.7397453 +1     3     2     1
  H(HETATM   19  H2  HET A   1)   1.09843738 +1  113.6176204 +1  100.1131972 +1     5     4     1
  H(HETATM   20  H4  HET A   1)   1.10949906 +1  109.5155779 +1   10.7176457 +1     7     4     1
  H(HETATM   21 1H5  HET A   1)   1.10019805 +1  110.1530509 +1  -84.0903741 +1     8     5     4
  H(HETATM   22 2H5  HET A   1)   1.09556278 +1  113.2183174 +1  155.5957462 +1     8     5     4
  H(HETATM   23 1H6  HET A   1)   1.09963996 +1  110.1719686 +1   80.6688217 +1     9     8     5
  H(HETATM   24 2H6  HET A   1)   1.09705957 +1  111.5050355 +1 -160.8175737 +1     9     8     5
  H(HETATM   25  H7  HET A   1)   1.10249295 +1  110.7733005 +1  -81.6024721 +1    10     5     4
  H(HETATM   26 1H9  HET A   1)   1.09384943 +1  111.4215384 +1  -39.7127317 +1    12    11     1
  H(HETATM   27 2H9  HET A   1)   1.09775161 +1  109.0325935 +1   81.7505790 +1    12    11     1
  H(HETATM   28  H10 HET A   1)   1.07952364 +1  122.0796029 +1 -171.2636083 +1    13     6     4
  H(HETATM   29 1H12 HET A   1)   1.09587401 +1  111.0273424 +1 -178.3420759 +1    15     6     4
  H(HETATM   30 2H12 HET A   1)   1.09547949 +1  111.8345135 +1  -58.5708480 +1    15     6     4
  H(HETATM   31 3H12 HET A   1)   1.09580800 +1  111.4192516 +1   62.1168612 +1    15     6     4
  H(HETATM   32 1H13 HET A   1)   1.09407018 +1  112.3157306 +1  -69.7462095 +1    16     7     4
  H(HETATM   33 2H13 HET A   1)   1.09555186 +1  110.9760161 +1   52.2312253 +1    16     7     4
  H(HETATM   34 3H13 HET A   1)   1.09782889 +1  110.6157543 +1  171.1215349 +1    16     7     4
  H(HETATM   35 1H14 HET A   1)   1.09586955 +1  110.9153804 +1   61.8884690 +1    17    10     5
  H(HETATM   36 2H14 HET A   1)   1.09489614 +1  110.7375341 +1 -178.3948663 +1    17    10     5
  H(HETATM   37 3H14 HET A   1)   1.09423186 +1  111.7299276 +1  -58.4030116 +1    17    10     5

 XPARAM 
  1  1    0.0053  1  2   -0.0014  1  3   -0.0024  2  1    6.3407  2  2   -0.0073
  2  3    0.0161  3  1    2.2372  3  2    1.0774  3  3    0.0003  4  1    2.4331
  4  2    0.6425  4  3    2.2134  5  1    1.5631  5  2    2.2164  5  3    3.3701
  6  1    1.5712  6  2    1.8237  6  3    1.2199  7  1    1.5530  7  2    1.6652
  7  3    5.6193  8  1    1.5320  8  2    1.8580  8  3    3.8659  9  1    1.5359
  9  2    1.8159  9  3    0.5936 10  1    1.5425 10  2    1.8627 10  3    5.9420
 11  1    1.2046 11  2    1.1556 11  3    2.1168 12  1    1.5079 12  2    2.1484
 12  3    3.3232 13  1    1.5061 13  2    1.7990 13  3    4.2563 14  1    1.3424
 14  2    1.9568 14  3    0.1830 15  1    1.5299 15  2    2.0263 15  3    0.0514
 16  1    1.5221 16  2    2.0281 16  3    4.3449 17  1    1.5260 17  2    1.9715
 17  3    2.7386 18  1    1.2472 18  2    0.4323 18  3    6.1306 19  1    1.0984
 19  2    1.9830 19  3    1.7473 20  1    1.1095 20  2    1.9114 20  3    0.1871
 21  1    1.1002 21  2    1.9225 21  3    4.8155 22  1    1.0956 22  2    1.9760
 22  3    2.7157 23  1    1.0996 23  2    1.9229 23  3    1.4079 24  1    1.0971
 24  2    1.9461 24  3    3.4764 25  1    1.1025 25  2    1.9334 25  3    4.8590
 26  1    1.0938 26  2    1.9447 26  3    5.5901 27  1    1.0978 27  2    1.9030
 27  3    1.4268 28  1    1.0795 28  2    2.1307 28  3    3.2941 29  1    1.0959
 29  2    1.9378 29  3    3.1705 30  1    1.0955 30  2    1.9519 30  3    5.2609
 31  1    1.0958 31  2    1.9446 31  3    1.0841 32  1    1.0941 32  2    1.9603
 32  3    5.0659 33  1    1.0956 33  2    1.9369 33  3    0.9116 34  1    1.0978
 34  2    1.9306 34  3    2.9866 35  1    1.0959 35  2    1.9358 35  3    1.0802
 36  1    1.0949 36  2    1.9327 36  3    3.1696 37  1    1.0942 37  2    1.9501
 37  3    5.2639
 grad
      -0.00000   -0.00001   -0.00000   13.46696    0.00000    0.00000  -23.16984   19.67152
       0.00000  -39.31183   94.85417  -57.09621   12.98046  -86.00903   75.12179  -12.98458
     -24.78244  -40.75417   -8.40956    2.63655  -14.86375   12.62168   63.85148    2.46617
      -9.56458   30.66781   24.87756    1.45669  -19.84085   41.74295   31.70275  -69.76524
      64.21237  -11.65448   55.33610  -21.18876  -12.78007  -29.95251   17.50806    6.28779
     -25.05403    8.45357    8.56815    5.29030   -7.67178    0.47745   -0.54679    5.56787
       0.06002    0.72375    7.14291   30.08494  -38.78594    2.71439   -5.20321    5.65278
      -1.13232  -10.86018    3.42648    1.44551   -4.41892   -0.26826   -0.00468   -0.73405
       1.15002   -1.50519    1.13332   -3.65835    1.56475    1.21571   -3.36959   -4.86619
     -12.41934    5.78573    7.78394   -4.18173   -1.76140   -4.78109   -8.51085    1.29278
      11.36863    4.59290    1.84466   -1.32995    0.89186    1.54857   -0.93008   -1.30802
       3.11123   -1.07671    1.31791   -0.70034    1.43843   -0.44355    1.21698    1.34117
       0.98766   -0.99641    0.29633   -2.85575    3.57404   -3.11127    0.41920    0.09599
       0.43983    0.10153   -1.04117    0.06704   -0.75615   -0.42604   -0.38883
 CYCLE:     3 TIME:   0.039 TIME LEFT:  2.00D  GRAD.:   241.142 HEAT: -166.6056

          HESSIAN HAS  0 NEGATIVE EIGENVALUE(S)
  MIN SEARCH, CORRECT HESSIAN, TRYING PURE NR STEP
 LAMBDA THAT MINIMIZES ALONG ALL MODES =        0.000000000
 PURE NR-STEP HAS LENGTH   0.42880
 LAMBDA THAT MINIMIZES ALONG ALL MODES =      -48.511365305
 P-RFO-STEP   HAS LENGTH   0.36033
 LAMBDA THAT MINIMIZES ALONG ALL MODES =    -2417.321014705
 QA/TRIM-STEP HAS LENGTH   0.05000

  HEAT OF FORMATION       -162.72073053290660    
 PARAMETERS        0.007  -0.001  -0.002   6.336   0.001   0.016   2.236   1.067
   0.001   2.437   0.614   2.217   1.554   2.223   3.361   1.572   1.833   1.222

   1.554   1.667   5.629   1.529   1.844   3.869   1.538   1.810   0.590   1.542

   1.858   5.939   1.204   1.167   2.110   1.513   2.143   3.326   1.515   1.808

   4.255   1.345   1.970   0.183   1.527   2.026   0.055   1.521   2.029   4.343

   1.525   1.973   2.736   1.245   0.440   6.130   1.100   1.981   1.748   1.113

   1.911   0.187   1.102   1.923   4.816   1.096   1.976   2.717   1.100   1.924

   1.408   1.097   1.947   3.478   1.105   1.932   4.858   1.095   1.946   5.592

   1.099   1.904   1.424   1.078   2.130   3.295   1.095   1.937   3.171   1.096

   1.951   5.262   1.095   1.945   1.084   1.094   1.960   5.066   1.095   1.938

   0.912   1.099   1.930   2.988   1.096   1.936   1.080   1.095   1.933   3.170

   1.094   1.950   5.264
 GRADIENT          0.000  -0.000  -0.000 -55.829   0.000   0.000 -36.018 -88.035
   0.000  81.947-295.324  21.225  -5.257 111.973 -53.258  12.369  66.901 -23.765

  -6.905  -2.474 -23.316 -25.256 -60.812  -3.390   4.468 -32.879 -21.015 -21.116

  41.344 -20.011 -32.866 131.962 -27.374   1.616 -73.655  12.759  88.547  72.541

  10.029  49.072  90.015  17.906  -0.264  10.487  -0.221  -0.080   1.297   4.691

   1.730   0.842   7.612  52.684  30.431  -2.138  -4.272   4.356  -1.061  -6.894

   3.707   0.010  -4.089  -0.497   0.121  -0.581   0.531  -1.154  -2.270  -1.309

  -1.633  -3.544  -0.573   0.304  -4.791   2.652   0.177   3.493  -6.445   3.750

   0.159  -4.184   2.312   2.741   3.219  -1.863   0.290   0.904  -1.089  -1.588

   2.363  -1.148   0.774  -0.989   1.784  -0.621   1.013   1.412   0.686  -1.125

   0.266  -2.931   3.501  -3.349   0.068  -0.072   0.456  -0.063  -0.998  -0.020

  -0.811  -0.245  -0.269
       HoF         ACTUAL,  PREDICTED ENERGY CHANGE, RATIO
  -162.7207305     3.8849070          -7.7600105   -0.5006317
 UNACCEPTABLE RATIO, REJECTING STEP, REDUCING DMAX TO 0.0250
  MIN SEARCH, CORRECT HESSIAN, TRYING PURE NR STEP
 LAMBDA THAT MINIMIZES ALONG ALL MODES =        0.000000000
 PURE NR-STEP HAS LENGTH   0.42880
 LAMBDA THAT MINIMIZES ALONG ALL MODES =      -48.511365305
 P-RFO-STEP   HAS LENGTH   0.36033
 LAMBDA THAT MINIMIZES ALONG ALL MODES =    -5789.359621240
 QA/TRIM-STEP HAS LENGTH   0.02500

  HEAT OF FORMATION       -168.13656095525948    
 PARAMETERS        0.006  -0.001  -0.002   6.338  -0.004   0.016   2.238   1.073
   0.001   2.436   0.629   2.217   1.559   2.222   3.365   1.572   1.828   1.222

   1.554   1.665   5.623   1.531   1.850   3.867   1.537   1.813   0.592   1.542

   1.861   5.940   1.203   1.162   2.113   1.510   2.144   3.325   1.510   1.803

   4.256   1.343   1.963   0.183   1.528   2.026   0.053   1.522   2.028   4.344

   1.525   1.972   2.738   1.246   0.436   6.130   1.099   1.982   1.748   1.111

   1.911   0.187   1.101   1.922   4.816   1.096   1.976   2.716   1.100   1.923

   1.408   1.097   1.947   3.477   1.104   1.933   4.858   1.094   1.945   5.591

   1.099   1.903   1.426   1.079   2.130   3.294   1.096   1.938   3.171   1.096

   1.951   5.261   1.095   1.945   1.084   1.094   1.960   5.066   1.095   1.937

   0.912   1.098   1.930   2.987   1.096   1.936   1.080   1.095   1.933   3.170

   1.094   1.950   5.264
 GRADIENT         -0.000  -0.000  -0.000 -10.998   0.000   0.000 -24.859 -17.193
   0.000  30.521-101.206   0.940  14.181  44.550  -2.373   1.676  13.656 -15.554

  -6.735  -1.859 -22.439  -6.119   1.896  -1.645  -3.039  -0.629   1.117 -11.636

  27.997  -1.804 -17.232  55.547   0.408  -8.354 -30.036   2.491  24.642  18.112

  15.100  17.899  20.373  13.796   4.088   7.971  -4.051   0.669   0.050   5.510

   1.709   0.417   7.942  33.583 -13.007  -0.113  -4.729   5.072  -1.042  -8.795

   3.444   0.577  -4.293  -0.394   0.054  -0.672   0.791  -1.350  -0.863  -2.359

  -0.357  -1.261  -1.970  -2.240  -7.378   3.567   2.559   0.557  -4.722   0.157

  -2.829  -2.479   5.370   3.713   2.370  -1.549   0.613   1.212  -1.019  -1.413

   2.705  -1.131   1.046  -0.828   1.608  -0.474   1.126   1.380   0.854  -1.030

   0.305  -2.845   3.550  -3.216   0.251   0.056   0.456   0.059  -1.014   0.004

  -0.715  -0.327  -0.296
       HoF         ACTUAL,  PREDICTED ENERGY CHANGE, RATIO
  -168.1365610    -1.5309234          -4.4833828    0.3414661
     STEPSIZE USED IS  0.02500
 CALCULATED STEP
     0.000490  0.000085  0.000333 -0.002296  0.003763 -0.000203  0.000618 -0.004137
     0.000401  0.003094 -0.013585  0.003413 -0.003672  0.005443 -0.005343  0.000552
     0.004359  0.002152  0.000853  0.000046  0.004017 -0.001497 -0.007530  0.001110
     0.000958 -0.003074 -0.001879 -0.000145 -0.001239 -0.002292 -0.001527  0.006368
    -0.004251  0.002016 -0.003941  0.001924  0.003680  0.003844 -0.000682  0.000419
     0.005845 -0.000156 -0.001739 -0.000113  0.001802 -0.000532  0.000142 -0.000476
    -0.000589  0.000313 -0.000776 -0.001572  0.003940 -0.000209  0.000692 -0.000857
     0.000337  0.001533 -0.000313  0.000012  0.000656 -0.000044  0.000155  0.000025
    -0.000153  0.000444 -0.000106  0.000610  0.000108 -0.000186  0.000522  0.000943
     0.001434 -0.000729 -0.000520  0.000428  0.000254  0.000918  0.000759  0.000260
    -0.001124 -0.000847 -0.000237  0.000387 -0.000238 -0.000239  0.000339  0.000127
    -0.000611  0.000364 -0.000329  0.000233 -0.000077 -0.000019 -0.000307 -0.000042
    -0.000286  0.000269  0.000115  0.000327 -0.000556  0.000693 -0.000187  0.000100
     0.000102 -0.000119  0.000168  0.000177  0.000033 -0.000048  0.000232
     NEW TRUST RADIUS =  0.02500
*REMARK   3 HET = Not identified; C 15 H 19 O 3      =    37 atoms res:    1
 PM7 CHARGE=-1 EF NOXYZ PRNT=2 PDBOUT COMPFG GRAPHF
 (1S,2S,5S,8S,9R)-2,5,9-trimethyl-11-oxotricyclo[6.3.0.01,5]undec-3-ene-3-carboxylic acid

  O(HETATM    1  O1  HET A   1)   0.00574291 +1   -0.0013305 +1   -0.0020486 +1
  O(HETATM    2  O2  HET A   1)   6.33840689 +1   -0.2013029 +1    0.9083298 +1     1     0     0
  O(HETATM    3  O3  HET A   1)   2.23777395 +1   61.4931098 +1    0.0411688 +1     2     1     0
  C(HETATM    4  C1  HET A   1)   2.43621832 +1   36.0337862 +1  127.0136546 +1     1     2     3
  C(HETATM    5  C2  HET A   1)   1.55941884 +1  127.2997974 +1 -167.2158644 +1     4     1     2
  C(HETATM    6  C3  HET A   1)   1.57176630 +1  104.7375453 +1   70.0176358 +1     4     1     2
  C(HETATM    7  C4  HET A   1)   1.55383536 +1   95.4098732 +1  -37.8088420 +1     4     1     2
  C(HETATM    8  C5  HET A   1)   1.53051514 +1  106.0239778 +1 -138.4385383 +1     5     4     1
  C(HETATM    9  C6  HET A   1)   1.53683051 +1  103.8671849 +1   33.9022603 +1     8     5     4
  C(HETATM   10  C7  HET A   1)   1.54239184 +1  106.6545390 +1  -19.6821638 +1     5     4     1
  C(HETATM   11  C8  HET A   1)   1.20306982 +1   66.5739730 +1  121.0395928 +1     1     2     3
  C(HETATM   12  C9  HET A   1)   1.50991681 +1  122.8685788 +1 -169.4861059 +1    11     1     2
  C(HETATM   13  C10 HET A   1)   1.50979623 +1  103.2938542 +1 -116.1703514 +1     6     4     1
  C(HETATM   14  C11 HET A   1)   1.34281078 +1  112.4540285 +1   10.4788779 +1    13     6     4
  C(HETATM   15  C12 HET A   1)   1.52818480 +1  116.0895727 +1    3.0503231 +1     6     4     1
  C(HETATM   16  C13 HET A   1)   1.52160380 +1  116.2074174 +1 -111.0850573 +1     7     4     1
  C(HETATM   17  C14 HET A   1)   1.52536728 +1  112.9785785 +1  156.8685800 +1    10     5     4
  C(HETATM   18  C15 HET A   1)   1.24562122 +1   24.9920347 +1   -8.7516950 +1     3     2     1
  H(HETATM   19  H2  HET A   1)   1.09912984 +1  113.5684898 +1  100.1325195 +1     5     4     1
  H(HETATM   20  H4  HET A   1)   1.11103256 +1  109.4976238 +1   10.7183297 +1     7     4     1
  H(HETATM   21 1H5  HET A   1)   1.10085455 +1  110.1505197 +1  -84.0814651 +1     8     5     4
  H(HETATM   22 2H5  HET A   1)   1.09558758 +1  113.2095516 +1  155.6212140 +1     8     5     4
  H(HETATM   23 1H6  HET A   1)   1.09953349 +1  110.2069339 +1   80.6749915 +1     9     8     5
  H(HETATM   24 2H6  HET A   1)   1.09687319 +1  111.5349228 +1 -160.7635321 +1     9     8     5
  H(HETATM   25  H7  HET A   1)   1.10392694 +1  110.7315185 +1  -81.6322521 +1    10     5     4
  H(HETATM   26 1H9  HET A   1)   1.09427701 +1  111.4360795 +1  -39.6601551 +1    12    11     1
  H(HETATM   27 2H9  HET A   1)   1.09851086 +1  109.0474687 +1   81.6862057 +1    12    11     1
  H(HETATM   28  H10 HET A   1)   1.07867697 +1  122.0660031 +1 -171.2414318 +1    13     6     4
  H(HETATM   29 1H12 HET A   1)   1.09563625 +1  111.0136498 +1 -178.3226303 +1    15     6     4
  H(HETATM   30 2H12 HET A   1)   1.09560680 +1  111.7995223 +1  -58.5500000 +1    15     6     4
  H(HETATM   31 3H12 HET A   1)   1.09547881 +1  111.4325936 +1   62.1124382 +1    15     6     4
  H(HETATM   32 1H13 HET A   1)   1.09405141 +1  112.2981232 +1  -69.7486092 +1    16     7     4
  H(HETATM   33 2H13 HET A   1)   1.09526585 +1  110.9914543 +1   52.2378187 +1    16     7     4
  H(HETATM   34 3H13 HET A   1)   1.09815576 +1  110.5838914 +1  171.1612677 +1    16     7     4
  H(HETATM   35 1H14 HET A   1)   1.09568230 +1  110.9211191 +1   61.8943388 +1    17    10     5
  H(HETATM   36 2H14 HET A   1)   1.09477732 +1  110.7471795 +1 -178.3847265 +1    17    10     5
  H(HETATM   37 3H14 HET A   1)   1.09426463 +1  111.7271521 +1  -58.3897184 +1    17    10     5

 XPARAM 
  1  1    0.0057  1  2   -0.0013  1  3   -0.0020  2  1    6.3384  2  2   -0.0035
  2  3    0.0159  3  1    2.2378  3  2    1.0733  3  3    0.0007  4  1    2.4362
  4  2    0.6289  4  3    2.2168  5  1    1.5594  5  2    2.2218  5  3    3.3647
  6  1    1.5718  6  2    1.8280  6  3    1.2220  7  1    1.5538  7  2    1.6652
  7  3    5.6233  8  1    1.5305  8  2    1.8505  8  3    3.8670  9  1    1.5368
  9  2    1.8128  9  3    0.5917 10  1    1.5424 10  2    1.8615 10  3    5.9397
 11  1    1.2031 11  2    1.1619 11  3    2.1125 12  1    1.5099 12  2    2.1445
 12  3    3.3251 13  1    1.5098 13  2    1.8028 13  3    4.2556 14  1    1.3428
 14  2    1.9627 14  3    0.1829 15  1    1.5282 15  2    2.0261 15  3    0.0532
 16  1    1.5216 16  2    2.0282 16  3    4.3444 17  1    1.5254 17  2    1.9718
 17  3    2.7379 18  1    1.2456 18  2    0.4362 18  3    6.1304 19  1    1.0991
 19  2    1.9821 19  3    1.7476 20  1    1.1110 20  2    1.9111 20  3    0.1871
 21  1    1.1009 21  2    1.9225 21  3    4.8157 22  1    1.0956 22  2    1.9759
 22  3    2.7161 23  1    1.0995 23  2    1.9235 23  3    1.4080 24  1    1.0969
 24  2    1.9467 24  3    3.4773 25  1    1.1039 25  2    1.9326 25  3    4.8584
 26  1    1.0943 26  2    1.9449 26  3    5.5910 27  1    1.0985 27  2    1.9032
 27  3    1.4257 28  1    1.0787 28  2    2.1305 28  3    3.2945 29  1    1.0956
 29  2    1.9376 29  3    3.1709 30  1    1.0956 30  2    1.9513 30  3    5.2613
 31  1    1.0955 31  2    1.9449 31  3    1.0841 32  1    1.0941 32  2    1.9600
 32  3    5.0658 33  1    1.0953 33  2    1.9372 33  3    0.9117 34  1    1.0982
 34  2    1.9301 34  3    2.9873 35  1    1.0957 35  2    1.9359 35  3    1.0803
 36  1    1.0948 36  2    1.9329 36  3    3.1698 37  1    1.0943 37  2    1.9500
 37  3    5.2641
 grad
      -0.00000   -0.00000   -0.00000  -10.99820    0.00000    0.00000  -24.85874  -17.19251
       0.00000   30.52051 -101.20575    0.93983   14.18130   44.55003   -2.37261    1.67575
      13.65567  -15.55384   -6.73536   -1.85858  -22.43878   -6.11910    1.89566   -1.64516
      -3.03920   -0.62913    1.11722  -11.63572   27.99688   -1.80416  -17.23211   55.54692
       0.40790   -8.35353  -30.03581    2.49082   24.64184   18.11174   15.10046   17.89891
      20.37286   13.79615    4.08825    7.97097   -4.05060    0.66852    0.05005    5.50950
       1.70917    0.41672    7.94173   33.58341  -13.00681   -0.11322   -4.72889    5.07230
      -1.04234   -8.79534    3.44429    0.57693   -4.29253   -0.39447    0.05425   -0.67182
       0.79114   -1.35039   -0.86264   -2.35907   -0.35729   -1.26113   -1.97018   -2.23993
      -7.37842    3.56707    2.55914    0.55653   -4.72248    0.15677   -2.82919   -2.47913
       5.37018    3.71325    2.37042   -1.54881    0.61260    1.21151   -1.01918   -1.41328
       2.70452   -1.13113    1.04600   -0.82846    1.60802   -0.47409    1.12613    1.38046
       0.85403   -1.02993    0.30473   -2.84515    3.54950   -3.21575    0.25085    0.05601
       0.45645    0.05873   -1.01382    0.00435   -0.71545   -0.32701   -0.29590
 CYCLE:     4 TIME:   0.031 TIME LEFT:  2.00D  GRAD.:   157.151 HEAT: -168.1366

          HESSIAN HAS  0 NEGATIVE EIGENVALUE(S)
  MIN SEARCH, CORRECT HESSIAN, TRYING PURE NR STEP
 LAMBDA THAT MINIMIZES ALONG ALL MODES =        0.000000000
 PURE NR-STEP HAS LENGTH   0.24475
 LAMBDA THAT MINIMIZES ALONG ALL MODES =      -18.737929684
 P-RFO-STEP   HAS LENGTH   0.22790
 LAMBDA THAT MINIMIZES ALONG ALL MODES =    -3194.719927651
 QA/TRIM-STEP HAS LENGTH   0.02500

  HEAT OF FORMATION       -168.99766812301823    
 PARAMETERS        0.005  -0.000  -0.001   6.338  -0.004   0.014   2.243   1.075
   0.001   2.434   0.640   2.221   1.556   2.220   3.360   1.572   1.828   1.229

   1.557   1.665   5.630   1.531   1.845   3.868   1.538   1.811   0.590   1.546

   1.857   5.937   1.204   1.157   2.108   1.513   2.146   3.327   1.508   1.802

   4.252   1.339   1.962   0.180   1.526   2.025   0.055   1.522   2.028   4.343

   1.525   1.972   2.736   1.239   0.442   6.131   1.100   1.981   1.748   1.113

   1.910   0.187   1.102   1.923   4.816   1.096   1.976   2.717   1.100   1.924

   1.408   1.097   1.947   3.478   1.106   1.932   4.857   1.095   1.946   5.592

   1.100   1.904   1.424   1.078   2.130   3.295   1.096   1.937   3.171   1.096

   1.950   5.262   1.095   1.945   1.084   1.094   1.960   5.066   1.095   1.938

   0.912   1.099   1.929   2.988   1.096   1.936   1.080   1.095   1.933   3.170

   1.095   1.950   5.264
 GRADIENT         -0.000  -0.000  -0.000   3.283   0.000   0.000  10.462  22.740
   0.000  -2.564  38.930   6.403 -23.379  13.173 -40.044   8.951  26.688  47.673

  -3.800  -7.506 -20.118 -20.000 -51.218  -9.430   2.988 -26.364 -23.899  -1.313

   3.180  -1.248   8.051 -12.081   0.272  -8.093  10.196   1.869  -5.081  14.412

  -9.780  -4.437  -0.419   0.480   0.389   9.162  -1.065   1.360   0.911   5.095

  -0.127   1.458   4.733  -4.126  -0.799   1.676  -3.666   4.296  -0.833  -6.942

   2.964  -0.032  -3.472  -0.417   0.117  -0.313   0.748  -1.134  -2.729  -0.840

  -2.591  -2.621  -1.018  -0.677  -5.713   2.890   1.358  -2.506  -1.863  -4.986

  -2.189  -2.312   3.840   3.039   1.978  -1.119   0.474   0.923  -1.130  -1.220

   2.366  -1.027   0.758  -0.982   1.670  -0.189   1.202   1.156   0.816  -1.022

   0.311  -2.304   3.416  -3.001   0.120  -0.135   0.423   0.132  -0.936  -0.004

  -0.418  -0.336  -0.372
       HoF         ACTUAL,  PREDICTED ENERGY CHANGE, RATIO
  -168.9976681    -0.8611072          -2.5138159    0.3425498
     STEPSIZE USED IS  0.02500
 CALCULATED STEP
    -0.000950  0.001037  0.000962 -0.000365 -0.000286 -0.001575  0.005433  0.001886
     0.000228 -0.002296  0.011398  0.004104 -0.003059 -0.002072 -0.004724  0.000428
    -0.000031  0.006668  0.002934  0.000061  0.006595  0.000678 -0.005379  0.000787
     0.000807 -0.001810 -0.001672  0.003113 -0.004342 -0.002243  0.000943 -0.004835
    -0.004413  0.002856  0.001754  0.001659 -0.002123 -0.000988 -0.003914 -0.003805
    -0.000986 -0.002894 -0.001852 -0.001333  0.002072  0.000654  0.000069 -0.001078
    -0.000030  0.000125 -0.001732 -0.006872  0.005733  0.000240  0.001163 -0.001296
     0.000517  0.002109 -0.000732 -0.000035  0.001307  0.000106  0.000190  0.000247
    -0.000150  0.000619  0.000019  0.000887  0.000163  0.000264  0.000713  0.001091
     0.002399 -0.001117 -0.000936  0.000544  0.001026  0.000585  0.001046  0.000535
    -0.001833 -0.000821 -0.000523  0.000648 -0.000043 -0.000281  0.000498  0.000647
    -0.000777  0.000534 -0.000335  0.000374 -0.000256  0.000410 -0.000314 -0.000197
    -0.000295  0.000442  0.000114  0.000791 -0.000883  0.001142 -0.000140  0.000139
     0.000071  0.000107  0.000352  0.000199  0.000491  0.000087  0.000299
     NEW TRUST RADIUS =  0.02500
*REMARK   3 HET = Not identified; C 15 H 19 O 3      =    37 atoms res:    1
 PM7 CHARGE=-1 EF NOXYZ PRNT=2 PDBOUT COMPFG GRAPHF
 (1S,2S,5S,8S,9R)-2,5,9-trimethyl-11-oxotricyclo[6.3.0.01,5]undec-3-ene-3-carboxylic acid

  O(HETATM    1  O1  HET A   1)   0.00479294 +1   -0.0002931 +1   -0.0010865 +1
  O(HETATM    2  O2  HET A   1)   6.33804218 +1   -0.2177081 +1    0.8180629 +1     1     0     0
  O(HETATM    3  O3  HET A   1)   2.24320690 +1   61.6011918 +1    0.0542396 +1     2     1     0
  C(HETATM    4  C1  HET A   1)   2.43392227 +1   36.6868526 +1  127.2488120 +1     1     2     3
  C(HETATM    5  C2  HET A   1)   1.55635937 +1  127.1810992 +1 -167.4865372 +1     4     1     2
  C(HETATM    6  C3  HET A   1)   1.57219479 +1  104.7357408 +1   70.3997101 +1     4     1     2
  C(HETATM    7  C4  HET A   1)   1.55676935 +1   95.4133549 +1  -37.4309513 +1     4     1     2
  C(HETATM    8  C5  HET A   1)   1.53119272 +1  105.7158053 +1 -138.3934751 +1     5     4     1
  C(HETATM    9  C6  HET A   1)   1.53763710 +1  103.7634684 +1   33.8064517 +1     8     5     4
  C(HETATM   10  C7  HET A   1)   1.54550469 +1  106.4057421 +1  -19.8106731 +1     5     4     1
  C(HETATM   11  C8  HET A   1)   1.20401255 +1   66.2969651 +1  120.7867345 +1     1     2     3
  C(HETATM   12  C9  HET A   1)   1.51277316 +1  122.9690735 +1 -169.3910776 +1    11     1     2
  C(HETATM   13  C10 HET A   1)   1.50767333 +1  103.2372553 +1 -116.3945808 +1     6     4     1
  C(HETATM   14  C11 HET A   1)   1.33900615 +1  112.3975499 +1   10.3130822 +1    13     6     4
  C(HETATM   15  C12 HET A   1)   1.52633318 +1  116.0132225 +1    3.1690329 +1     6     4     1
  C(HETATM   16  C13 HET A   1)   1.52225779 +1  116.2113923 +1 -111.1467958 +1     7     4     1
  C(HETATM   17  C14 HET A   1)   1.52533762 +1  112.9857513 +1  156.7693183 +1    10     5     4
  C(HETATM   18  C15 HET A   1)   1.23874874 +1   25.3204899 +1   -8.7379365 +1     3     2     1
  H(HETATM   19  H2  HET A   1)   1.10029268 +1  113.4942181 +1  100.1621593 +1     5     4     1
  H(HETATM   20  H4  HET A   1)   1.11314186 +1  109.4556936 +1   10.7163234 +1     7     4     1
  H(HETATM   21 1H5  HET A   1)   1.10216114 +1  110.1566127 +1  -84.0705586 +1     8     5     4
  H(HETATM   22 2H5  HET A   1)   1.09583464 +1  113.2009647 +1  155.6566871 +1     8     5     4
  H(HETATM   23 1H6  HET A   1)   1.09955271 +1  110.2577337 +1   80.6843589 +1     9     8     5
  H(HETATM   24 2H6  HET A   1)   1.09713765 +1  111.5757678 +1 -160.7010445 +1     9     8     5
  H(HETATM   25  H7  HET A   1)   1.10632636 +1  110.6675254 +1  -81.6858597 +1    10     5     4
  H(HETATM   26 1H9  HET A   1)   1.09482089 +1  111.4948852 +1  -39.6266484 +1    12    11     1
  H(HETATM   27 2H9  HET A   1)   1.09955720 +1  109.0781250 +1   81.5811632 +1    12    11     1
  H(HETATM   28  H10 HET A   1)   1.07785640 +1  122.0360384 +1 -171.2043266 +1    13     6     4
  H(HETATM   29 1H12 HET A   1)   1.09559316 +1  110.9975621 +1 -178.2941003 +1    15     6     4
  H(HETATM   30 2H12 HET A   1)   1.09625402 +1  111.7550101 +1  -58.5193847 +1    15     6     4
  H(HETATM   31 3H12 HET A   1)   1.09514337 +1  111.4540108 +1   62.0977830 +1    15     6     4
  H(HETATM   32 1H13 HET A   1)   1.09446181 +1  112.2801308 +1  -69.7599195 +1    16     7     4
  H(HETATM   33 2H13 HET A   1)   1.09497050 +1  111.0167677 +1   52.2443548 +1    16     7     4
  H(HETATM   34 3H13 HET A   1)   1.09894689 +1  110.5332971 +1  171.2267112 +1    16     7     4
  H(HETATM   35 1H14 HET A   1)   1.09554265 +1  110.9290586 +1   61.8984262 +1    17    10     5
  H(HETATM   36 2H14 HET A   1)   1.09488424 +1  110.7673558 +1 -178.3733190 +1    17    10     5
  H(HETATM   37 3H14 HET A   1)   1.09475536 +1  111.7321582 +1  -58.3725771 +1    17    10     5

 XPARAM 
  1  1    0.0048  1  2   -0.0003  1  3   -0.0011  2  1    6.3380  2  2   -0.0038
  2  3    0.0143  3  1    2.2432  3  2    1.0751  3  3    0.0009  4  1    2.4339
  4  2    0.6403  4  3    2.2209  5  1    1.5564  5  2    2.2197  5  3    3.3600
  6  1    1.5722  6  2    1.8280  6  3    1.2287  7  1    1.5568  7  2    1.6653
  7  3    5.6299  8  1    1.5312  8  2    1.8451  8  3    3.8678  9  1    1.5376
  9  2    1.8110  9  3    0.5900 10  1    1.5455 10  2    1.8571 10  3    5.9374
 11  1    1.2040 11  2    1.1571 11  3    2.1081 12  1    1.5128 12  2    2.1462
 12  3    3.3268 13  1    1.5077 13  2    1.8018 13  3    4.2517 14  1    1.3390
 14  2    1.9617 14  3    0.1800 15  1    1.5263 15  2    2.0248 15  3    0.0553
 16  1    1.5223 16  2    2.0283 16  3    4.3433 17  1    1.5253 17  2    1.9720
 17  3    2.7361 18  1    1.2387 18  2    0.4419 18  3    6.1307 19  1    1.1003
 19  2    1.9808 19  3    1.7482 20  1    1.1131 20  2    1.9104 20  3    0.1870
 21  1    1.1022 21  2    1.9226 21  3    4.8159 22  1    1.0958 22  2    1.9757
 22  3    2.7167 23  1    1.0996 23  2    1.9244 23  3    1.4082 24  1    1.0971
 24  2    1.9474 24  3    3.4784 25  1    1.1063 25  2    1.9315 25  3    4.8575
 26  1    1.0948 26  2    1.9460 26  3    5.5916 27  1    1.0996 27  2    1.9038
 27  3    1.4239 28  1    1.0779 28  2    2.1299 28  3    3.2951 29  1    1.0956
 29  2    1.9373 29  3    3.1714 30  1    1.0963 30  2    1.9505 30  3    5.2618
 31  1    1.0951 31  2    1.9452 31  3    1.0838 32  1    1.0945 32  2    1.9597
 32  3    5.0656 33  1    1.0950 33  2    1.9376 33  3    0.9118 34  1    1.0989
 34  2    1.9292 34  3    2.9885 35  1    1.0955 35  2    1.9361 35  3    1.0803
 36  1    1.0949 36  2    1.9333 36  3    3.1700 37  1    1.0948 37  2    1.9501
 37  3    5.2644
 grad
      -0.00000   -0.00000   -0.00000    3.28272    0.00000    0.00000   10.46150   22.74009
       0.00000   -2.56380   38.93037    6.40256  -23.37940   13.17280  -40.04373    8.95062
      26.68780   47.67277   -3.79963   -7.50623  -20.11797  -19.99991  -51.21760   -9.42962
       2.98757  -26.36361  -23.89862   -1.31266    3.17972   -1.24771    8.05114  -12.08121
       0.27153   -8.09326   10.19606    1.86904   -5.08128   14.41154   -9.78047   -4.43705
      -0.41889    0.48021    0.38909    9.16163   -1.06491    1.35985    0.91108    5.09471
      -0.12662    1.45844    4.73325   -4.12598   -0.79911    1.67648   -3.66604    4.29594
      -0.83283   -6.94184    2.96438   -0.03153   -3.47174   -0.41683    0.11720   -0.31306
       0.74794   -1.13357   -2.72852   -0.84001   -2.59107   -2.62074   -1.01758   -0.67725
      -5.71304    2.89046    1.35818   -2.50646   -1.86303   -4.98603   -2.18908   -2.31181
       3.84005    3.03878    1.97847   -1.11877    0.47354    0.92288   -1.13013   -1.22035
       2.36550   -1.02714    0.75791   -0.98206    1.67029   -0.18868    1.20156    1.15631
       0.81586   -1.02175    0.31120   -2.30375    3.41620   -3.00122    0.12020   -0.13474
       0.42329    0.13244   -0.93649   -0.00381   -0.41769   -0.33626   -0.37242
 CYCLE:     5 TIME:   0.016 TIME LEFT:  2.00D  GRAD.:   116.824 HEAT: -168.9977

          HESSIAN HAS  0 NEGATIVE EIGENVALUE(S)
  MIN SEARCH, CORRECT HESSIAN, TRYING PURE NR STEP
 LAMBDA THAT MINIMIZES ALONG ALL MODES =        0.000000000
 PURE NR-STEP HAS LENGTH   0.24040
 LAMBDA THAT MINIMIZES ALONG ALL MODES =      -12.851578095
 P-RFO-STEP   HAS LENGTH   0.22516
 LAMBDA THAT MINIMIZES ALONG ALL MODES =    -2196.204463952
 QA/TRIM-STEP HAS LENGTH   0.02500

  HEAT OF FORMATION       -168.97852217438049    
 PARAMETERS        0.005   0.001  -0.002   6.339  -0.002   0.014   2.244   1.073
   0.001   2.432   0.640   2.223   1.559   2.217   3.367   1.570   1.821   1.220

   1.558   1.667   5.638   1.535   1.855   3.870   1.537   1.817   0.595   1.546

   1.855   5.935   1.202   1.158   2.104   1.515   2.145   3.327   1.505   1.798

   4.251   1.337   1.961   0.178   1.525   2.023   0.056   1.521   2.028   4.341

   1.525   1.972   2.734   1.235   0.444   6.130   1.102   1.979   1.749   1.116

   1.909   0.187   1.103   1.923   4.816   1.096   1.976   2.717   1.100   1.925

   1.409   1.098   1.948   3.479   1.109   1.930   4.856   1.095   1.947   5.593

   1.101   1.905   1.422   1.077   2.129   3.296   1.095   1.937   3.172   1.097

   1.949   5.262   1.095   1.946   1.083   1.094   1.959   5.065   1.095   1.938

   0.912   1.100   1.928   2.990   1.095   1.936   1.080   1.095   1.934   3.170

   1.095   1.950   5.265
 GRADIENT          0.000  -0.000  -0.000   5.234   0.000   0.000  15.625  18.925
   0.000  -4.309  36.444  11.354  20.032 -29.316  17.969 -28.118  -6.874 -62.299

  -2.915  13.503  20.608  13.538  53.096   4.055  -5.671  27.378  22.698  -0.610

   0.254  -4.718   5.569  -9.946  -4.106  -5.049   9.566   3.136 -18.470 -57.603

   5.503   4.105 -31.375  -1.607   4.597   5.053  -5.588  -2.119   2.696   1.956

  -0.801   1.901   3.616 -12.967   6.294   2.913  -2.424   4.338  -0.560  -7.348

   3.799   1.738  -2.339  -0.030  -0.186  -0.288   1.326  -1.544   1.422  -3.275

   1.391   1.427  -2.892  -4.510  -4.038   2.587   0.892  -2.271  -1.441  -5.070

  -1.142  -2.327   2.973   1.899   2.124  -1.401   0.305   0.994  -0.979  -1.093

   2.530  -0.966   0.575  -0.847   1.395  -0.322   1.096   1.075   0.578  -1.331

   0.247  -2.079   3.174  -2.860  -0.021  -0.215   0.412   0.034  -0.911   0.006

  -0.432  -0.292  -0.385
       HoF         ACTUAL,  PREDICTED ENERGY CHANGE, RATIO
  -168.9785222     0.0191459          -1.8529838   -0.0103325
 UNACCEPTABLE RATIO, REJECTING STEP, REDUCING DMAX TO 0.0125
  MIN SEARCH, CORRECT HESSIAN, TRYING PURE NR STEP
 LAMBDA THAT MINIMIZES ALONG ALL MODES =        0.000000000
 PURE NR-STEP HAS LENGTH   0.24040
 LAMBDA THAT MINIMIZES ALONG ALL MODES =      -12.851578095
 P-RFO-STEP   HAS LENGTH   0.22516
 LAMBDA THAT MINIMIZES ALONG ALL MODES =    -5544.325921704
 QA/TRIM-STEP HAS LENGTH   0.01250

  HEAT OF FORMATION       -169.58965399049339    
 PARAMETERS        0.005   0.000  -0.002   6.338  -0.003   0.014   2.243   1.074
   0.001   2.433   0.639   2.221   1.558   2.218   3.364   1.571   1.825   1.224

   1.557   1.666   5.633   1.533   1.851   3.869   1.537   1.814   0.593   1.546

   1.856   5.937   1.203   1.158   2.107   1.514   2.146   3.327   1.507   1.800

   4.252   1.339   1.962   0.179   1.526   2.024   0.056   1.522   2.028   4.342

   1.525   1.972   2.735   1.237   0.443   6.130   1.101   1.980   1.748   1.114

   1.910   0.187   1.103   1.923   4.816   1.096   1.976   2.717   1.100   1.925

   1.408   1.097   1.948   3.479   1.107   1.931   4.857   1.095   1.946   5.592

   1.100   1.904   1.423   1.077   2.130   3.295   1.095   1.937   3.172   1.096

   1.950   5.262   1.095   1.946   1.083   1.094   1.959   5.065   1.095   1.938

   0.912   1.099   1.929   2.989   1.095   1.936   1.080   1.095   1.933   3.170

   1.095   1.950   5.264
 GRADIENT         -0.000  -0.000  -0.000   2.621   0.000   0.000   9.823  16.422
   0.000  -2.708  27.529   4.089   2.561 -12.947  -1.287 -10.543   5.824 -16.000

  -3.849   3.040  -0.848  -0.098  11.883  -1.350  -2.674   5.962   4.296  -1.645

   0.960  -0.157   6.899  -8.928   2.237  -6.321   9.784   1.041  -7.738 -19.541

   0.380   2.158 -12.641   0.907   3.007   6.845  -3.761  -0.458   1.721   3.599

  -0.502   1.715   4.353  -4.995   2.137   2.135  -3.149   4.401  -0.738  -7.289

   3.440   0.909  -2.977  -0.201  -0.035  -0.329   1.040  -1.356  -0.359  -2.269

  -0.317  -0.337  -2.112  -2.877  -5.332   3.011   1.635  -2.234  -1.838  -4.627

  -2.045  -2.120   3.966   2.518   2.113  -1.311   0.397   1.007  -1.034  -1.181

   2.474  -1.002   0.692  -0.896   1.520  -0.300   1.138   1.145   0.687  -1.176

   0.282  -2.251   3.306  -2.952   0.052  -0.158   0.425   0.058  -0.948   0.012

  -0.475  -0.320  -0.379
       HoF         ACTUAL,  PREDICTED ENERGY CHANGE, RATIO
  -169.5896540    -0.5919859          -1.0903704    0.5429218
     STEPSIZE USED IS  0.01250
 CALCULATED STEP
     0.000154  0.000384 -0.000535  0.000233  0.001173  0.000075 -0.000121 -0.001395
    -0.000194 -0.000598 -0.001167 -0.000016  0.001803 -0.001795  0.003940 -0.001051
    -0.003238 -0.004847  0.000293  0.000904  0.003291  0.002073  0.005688  0.001028
    -0.000205  0.003391  0.002527  0.000090 -0.001005 -0.000641 -0.000873  0.000502
    -0.001368  0.000961 -0.000673 -0.000081 -0.000799 -0.002048  0.000259 -0.000387
    -0.000187 -0.000858 -0.000317 -0.000981  0.000231 -0.000562 -0.000008 -0.001037
    -0.000284  0.000038 -0.001093 -0.001399  0.000639 -0.000552  0.000591 -0.000684
     0.000109  0.001204 -0.000405 -0.000088  0.000477  0.000075 -0.000069 -0.000004
    -0.000072  0.000161  0.000290  0.000326  0.000267  0.000248  0.000272  0.000169
     0.000927 -0.000555 -0.000442  0.000167  0.000407  0.000639  0.000398  0.000445
    -0.000902 -0.000611 -0.000309  0.000172 -0.000167 -0.000125  0.000141  0.000072
    -0.000426  0.000135 -0.000172  0.000261 -0.000341 -0.000084 -0.000201 -0.000265
    -0.000164  0.000282 -0.000105  0.000316 -0.000533  0.000487 -0.000060  0.000118
    -0.000127 -0.000100  0.000213 -0.000053 -0.000050  0.000053  0.000013
     NEW TRUST RADIUS =  0.01768
*REMARK   3 HET = Not identified; C 15 H 19 O 3      =    37 atoms res:    1
 PM7 CHARGE=-1 EF NOXYZ PRNT=2 PDBOUT COMPFG GRAPHF
 (1S,2S,5S,8S,9R)-2,5,9-trimethyl-11-oxotricyclo[6.3.0.01,5]undec-3-ene-3-carboxylic acid

  O(HETATM    1  O1  HET A   1)   0.00494714 +1    0.0000907 +1   -0.0016220 +1
  O(HETATM    2  O2  HET A   1)   6.33827504 +1   -0.1504913 +1    0.8223622 +1     1     0     0
  O(HETATM    3  O3  HET A   1)   2.24308620 +1   61.5212755 +1    0.0431105 +1     2     1     0
  C(HETATM    4  C1  HET A   1)   2.43332404 +1   36.6199607 +1  127.2478909 +1     1     2     3
  C(HETATM    5  C2  HET A   1)   1.55816235 +1  127.0782658 +1 -167.2607635 +1     4     1     2
  C(HETATM    6  C3  HET A   1)   1.57114343 +1  104.5502439 +1   70.1220203 +1     4     1     2
  C(HETATM    7  C4  HET A   1)   1.55706185 +1   95.4651456 +1  -37.2423680 +1     4     1     2
  C(HETATM    8  C5  HET A   1)   1.53326578 +1  106.0417214 +1 -138.3345726 +1     5     4     1
  C(HETATM    9  C6  HET A   1)   1.53743230 +1  103.9577642 +1   33.9512330 +1     8     5     4
  C(HETATM   10  C7  HET A   1)   1.54559477 +1  106.3481479 +1  -19.8474163 +1     5     4     1
  C(HETATM   11  C8  HET A   1)   1.20313908 +1   66.3257540 +1  120.7083259 +1     1     2     3
  C(HETATM   12  C9  HET A   1)   1.51373391 +1  122.9305307 +1 -169.3957380 +1    11     1     2
  C(HETATM   13  C10 HET A   1)   1.50687460 +1  103.1199306 +1 -116.3797229 +1     6     4     1
  C(HETATM   14  C11 HET A   1)   1.33861900 +1  112.3868351 +1   10.2639471 +1    13     6     4
  C(HETATM   15  C12 HET A   1)   1.52601584 +1  115.9569956 +1    3.1822789 +1     6     4     1
  C(HETATM   16  C13 HET A   1)   1.52169542 +1  116.2109463 +1 -111.2062167 +1     7     4     1
  C(HETATM   17  C14 HET A   1)   1.52505342 +1  112.9879382 +1  156.7066657 +1    10     5     4
  C(HETATM   18  C15 HET A   1)   1.23735010 +1   25.3571191 +1   -8.7695522 +1     3     2     1
  H(HETATM   19  H2  HET A   1)   1.10088352 +1  113.4550475 +1  100.1684078 +1     5     4     1
  H(HETATM   20  H4  HET A   1)   1.11434546 +1  109.4324907 +1   10.7112918 +1     7     4     1
  H(HETATM   21 1H5  HET A   1)   1.10263839 +1  110.1609077 +1  -84.0744933 +1     8     5     4
  H(HETATM   22 2H5  HET A   1)   1.09583048 +1  113.1968293 +1  155.6659334 +1     8     5     4
  H(HETATM   23 1H6  HET A   1)   1.09984300 +1  110.2763992 +1   80.6996789 +1     9     8     5
  H(HETATM   24 2H6  HET A   1)   1.09738553 +1  111.5913487 +1 -160.6913493 +1     9     8     5
  H(HETATM   25  H7  HET A   1)   1.10725318 +1  110.6357184 +1  -81.7111578 +1    10     5     4
  H(HETATM   26 1H9  HET A   1)   1.09498771 +1  111.5182114 +1  -39.5900421 +1    12    11     1
  H(HETATM   27 2H9  HET A   1)   1.09995533 +1  109.1036048 +1   81.5294895 +1    12    11     1
  H(HETATM   28  H10 HET A   1)   1.07724550 +1  122.0183320 +1 -171.1944743 +1    13     6     4
  H(HETATM   29 1H12 HET A   1)   1.09542622 +1  110.9904062 +1 -178.2859994 +1    15     6     4
  H(HETATM   30 2H12 HET A   1)   1.09632623 +1  111.7305924 +1  -58.5116760 +1    15     6     4
  H(HETATM   31 3H12 HET A   1)   1.09497148 +1  111.4689699 +1   62.0782722 +1    15     6     4
  H(HETATM   32 1H13 HET A   1)   1.09437819 +1  112.2685974 +1  -69.7751010 +1    16     7     4
  H(HETATM   33 2H13 HET A   1)   1.09480655 +1  111.0329082 +1   52.2383214 +1    16     7     4
  H(HETATM   34 3H13 HET A   1)   1.09926290 +1  110.5027468 +1  171.2546286 +1    16     7     4
  H(HETATM   35 1H14 HET A   1)   1.09548220 +1  110.9358287 +1   61.8911260 +1    17    10     5
  H(HETATM   36 2H14 HET A   1)   1.09478397 +1  110.7795427 +1 -178.3763341 +1    17    10     5
  H(HETATM   37 3H14 HET A   1)   1.09470542 +1  111.7352079 +1  -58.3718370 +1    17    10     5

 XPARAM 
  1  1    0.0049  1  2    0.0001  1  3   -0.0016  2  1    6.3383  2  2   -0.0026
  2  3    0.0144  3  1    2.2431  3  2    1.0737  3  3    0.0008  4  1    2.4333
  4  2    0.6391  4  3    2.2209  5  1    1.5582  5  2    2.2179  5  3    3.3639
  6  1    1.5711  6  2    1.8247  6  3    1.2239  7  1    1.5571  7  2    1.6662
  7  3    5.6332  8  1    1.5333  8  2    1.8508  8  3    3.8688  9  1    1.5374
  9  2    1.8144  9  3    0.5926 10  1    1.5456 10  2    1.8561 10  3    5.9368
 11  1    1.2031 11  2    1.1576 11  3    2.1068 12  1    1.5137 12  2    2.1455
 12  3    3.3267 13  1    1.5069 13  2    1.7998 13  3    4.2520 14  1    1.3386
 14  2    1.9615 14  3    0.1791 15  1    1.5260 15  2    2.0238 15  3    0.0555
 16  1    1.5217 16  2    2.0283 16  3    4.3423 17  1    1.5251 17  2    1.9720
 17  3    2.7350 18  1    1.2374 18  2    0.4426 18  3    6.1301 19  1    1.1009
 19  2    1.9802 19  3    1.7483 20  1    1.1143 20  2    1.9100 20  3    0.1869
 21  1    1.1026 21  2    1.9227 21  3    4.8158 22  1    1.0958 22  2    1.9757
 22  3    2.7169 23  1    1.0998 23  2    1.9247 23  3    1.4085 24  1    1.0974
 24  2    1.9476 24  3    3.4786 25  1    1.1073 25  2    1.9310 25  3    4.8571
 26  1    1.0950 26  2    1.9464 26  3    5.5922 27  1    1.1000 27  2    1.9042
 27  3    1.4230 28  1    1.0772 28  2    2.1296 28  3    3.2953 29  1    1.0954
 29  2    1.9371 29  3    3.1715 30  1    1.0963 30  2    1.9501 30  3    5.2620
 31  1    1.0950 31  2    1.9455 31  3    1.0835 32  1    1.0944 32  2    1.9595
 32  3    5.0654 33  1    1.0948 33  2    1.9379 33  3    0.9117 34  1    1.0993
 34  2    1.9286 34  3    2.9890 35  1    1.0955 35  2    1.9362 35  3    1.0802
 36  1    1.0948 36  2    1.9335 36  3    3.1699 37  1    1.0947 37  2    1.9501
 37  3    5.2644
 grad
      -0.00000   -0.00000   -0.00000    2.62128    0.00000    0.00000    9.82268   16.42231
       0.00000   -2.70754   27.52885    4.08915    2.56053  -12.94747   -1.28713  -10.54283
       5.82431  -15.99959   -3.84871    3.04004   -0.84751   -0.09792   11.88334   -1.34997
      -2.67450    5.96238    4.29552   -1.64489    0.96003   -0.15747    6.89950   -8.92763
       2.23738   -6.32077    9.78375    1.04061   -7.73753  -19.54078    0.37971    2.15828
     -12.64101    0.90666    3.00734    6.84488   -3.76052   -0.45810    1.72139    3.59923
      -0.50215    1.71543    4.35344   -4.99544    2.13690    2.13521   -3.14866    4.40138
      -0.73842   -7.28913    3.43974    0.90917   -2.97722   -0.20077   -0.03522   -0.32899
       1.04012   -1.35649   -0.35922   -2.26864   -0.31737   -0.33704   -2.11231   -2.87662
      -5.33199    3.01071    1.63478   -2.23407   -1.83823   -4.62693   -2.04525   -2.11986
       3.96648    2.51771    2.11304   -1.31136    0.39732    1.00689   -1.03400   -1.18065
       2.47368   -1.00164    0.69233   -0.89593    1.52033   -0.29964    1.13826    1.14510
       0.68662   -1.17553    0.28192   -2.25099    3.30630   -2.95224    0.05152   -0.15762
       0.42534    0.05792   -0.94804    0.01179   -0.47481   -0.31999   -0.37944
 CYCLE:     6 TIME:   0.031 TIME LEFT:  2.00D  GRAD.:    57.105 HEAT: -169.5897

          HESSIAN HAS  0 NEGATIVE EIGENVALUE(S)
  MIN SEARCH, CORRECT HESSIAN, TRYING PURE NR STEP
 LAMBDA THAT MINIMIZES ALONG ALL MODES =        0.000000000
 PURE NR-STEP HAS LENGTH   0.12216
 LAMBDA THAT MINIMIZES ALONG ALL MODES =       -4.003026881
 P-RFO-STEP   HAS LENGTH   0.12003
 LAMBDA THAT MINIMIZES ALONG ALL MODES =    -1672.404168741
 QA/TRIM-STEP HAS LENGTH   0.01768

  HEAT OF FORMATION       -169.72878600082186    
 PARAMETERS        0.006   0.001  -0.003   6.339  -0.000   0.016   2.240   1.069
   0.001   2.432   0.635   2.217   1.558   2.219   3.369   1.574   1.821   1.228

   1.557   1.666   5.635   1.534   1.851   3.870   1.538   1.815   0.592   1.545

   1.854   5.938   1.202   1.158   2.107   1.515   2.145   3.325   1.508   1.806

   4.251   1.338   1.966   0.178   1.525   2.022   0.057   1.521   2.028   4.340

   1.525   1.972   2.732   1.238   0.442   6.129   1.102   1.978   1.749   1.117

   1.909   0.186   1.103   1.923   4.816   1.096   1.975   2.717   1.100   1.926

   1.409   1.097   1.949   3.480   1.109   1.930   4.856   1.095   1.948   5.594

   1.101   1.906   1.421   1.076   2.129   3.296   1.095   1.937   3.172   1.096

   1.949   5.262   1.095   1.946   1.082   1.094   1.959   5.065   1.095   1.939

   0.911   1.100   1.927   2.990   1.095   1.937   1.080   1.095   1.934   3.170

   1.094   1.951   5.264
 GRADIENT         -0.000  -0.000  -0.000  -8.887   0.000   0.000   1.669   2.755
   0.000   3.948 -14.428 -12.409   2.749 -17.725  12.843  11.333  -5.652   6.404

  -3.601 -11.300 -26.419   2.680  17.637  -2.361  -2.660   9.142   5.405  -4.048

  -3.997   9.077   5.149   0.991  15.962  -2.604   8.058  -3.666  19.064  41.982

  -4.940  -0.141  26.429   4.074   2.923   6.357  -4.436   0.983   0.418   4.793

  -0.765   1.961   4.198   2.304   4.553  -0.771  -2.418   4.002  -0.816  -3.882

   2.648  -0.322  -2.438  -0.039  -0.060  -0.245   1.058  -1.234  -0.027  -2.035

  -0.339   0.000  -1.982  -3.035  -5.436   3.832   3.563  -1.129  -2.259  -2.713

  -2.592  -1.024   5.504   1.710   2.379  -1.381   0.178   0.879  -0.977  -1.255

   2.415  -0.924   0.504  -0.895   1.373  -0.498   1.045   1.194   0.620  -1.102

   0.133  -2.037   3.232  -2.900  -0.002  -0.101   0.421  -0.097  -0.908   0.050

  -0.647  -0.237  -0.375
       HoF         ACTUAL,  PREDICTED ENERGY CHANGE, RATIO
[...]
  H(HETATM   27 2H9  HET A   1)   1.10407963 +1  109.3425979 +1   71.7249955 +1    12    11     1
  H(HETATM   28  H10 HET A   1)   1.07179661 +1  120.7209637 +1 -170.5668203 +1    13     6     4
  H(HETATM   29 1H12 HET A   1)   1.09399128 +1  110.9487762 +1 -175.5064107 +1    15     6     4
  H(HETATM   30 2H12 HET A   1)   1.10174463 +1  110.2903345 +1  -56.6109108 +1    15     6     4
  H(HETATM   31 3H12 HET A   1)   1.09210022 +1  112.4364815 +1   63.0466872 +1    15     6     4
  H(HETATM   32 1H13 HET A   1)   1.09452986 +1  112.0227655 +1  -65.9100024 +1    16     7     4
  H(HETATM   33 2H13 HET A   1)   1.08947250 +1  112.4152176 +1   57.9889073 +1    16     7     4
  H(HETATM   34 3H13 HET A   1)   1.10955060 +1  108.3061617 +1  177.7820807 +1    16     7     4
  H(HETATM   35 1H14 HET A   1)   1.09548299 +1  110.9513427 +1   60.9560218 +1    17    10     5
  H(HETATM   36 2H14 HET A   1)   1.09372287 +1  111.3413432 +1 -179.0457262 +1    17    10     5
  H(HETATM   37 3H14 HET A   1)   1.09619301 +1  111.5718092 +1  -58.7303406 +1    17    10     5

 XPARAM 
  1  1   -0.0145  1  2    0.0636  1  3   -0.0307  2  1    6.3405  2  2    0.0335
  2  3    0.0287  3  1    2.2328  3  2    0.9808  3  3    0.0124  4  1    2.4274
  4  2    0.6706  4  3    2.2144  5  1    1.5511  5  2    2.2472  5  3    3.4201
  6  1    1.5830  6  2    1.8018  6  3    1.2691  7  1    1.5633  7  2    1.6595
  7  3    5.6946  8  1    1.5365  8  2    1.8596  8  3    3.9349  9  1    1.5345
  9  2    1.8398  9  3    0.5048 10  1    1.5530 10  2    1.8658 10  3    6.0271
 11  1    1.2030 11  2    1.1805 11  3    2.0825 12  1    1.5168 12  2    2.1299
 12  3    3.3306 13  1    1.5103 13  2    1.8045 13  3    4.2867 14  1    1.3358
 14  2    1.9652 14  3    0.1506 15  1    1.5245 15  2    1.9869 15  3    0.0971
 16  1    1.5225 16  2    2.0210 16  3    4.2941 17  1    1.5275 17  2    1.9479
 17  3    2.5253 18  1    1.2386 18  2    0.4456 18  3    6.1541 19  1    1.1075
 19  2    1.9449 19  3    1.8346 20  1    1.1243 20  2    1.8964 20  3    0.1415
 21  1    1.1081 21  2    1.9134 21  3    4.7274 22  1    1.0963 22  2    1.9654
 22  3    2.6545 23  1    1.0998 23  2    1.9384 23  3    1.5010 24  1    1.1003
 24  2    1.9524 24  3    3.5805 25  1    1.1141 25  2    1.9061 25  3    4.6296
 26  1    1.0994 26  2    1.9452 26  3    5.4974 27  1    1.1041 27  2    1.9084
 27  3    1.2518 28  1    1.0718 28  2    2.1070 28  3    3.3062 29  1    1.0940
 29  2    1.9364 29  3    3.2200 30  1    1.1017 30  2    1.9249 30  3    5.2951
 31  1    1.0921 31  2    1.9624 31  3    1.1004 32  1    1.0945 32  2    1.9552
 32  3    5.1328 33  1    1.0895 33  2    1.9620 33  3    1.0121 34  1    1.1096
 34  2    1.8903 34  3    3.1029 35  1    1.0955 35  2    1.9365 35  3    1.0639
 36  1    1.0937 36  2    1.9433 36  3    3.1582 37  1    1.0962 37  2    1.9473
 37  3    5.2581
 grad
       0.00000   -0.00001   -0.00000   -0.09294    0.00000    0.00000   -0.06983    0.05321
       0.00000    0.02187   -0.19157    0.15946    0.08877    0.09800   -0.07516    0.04961
       0.04142    0.08854   -0.26139   -0.28589   -0.02677   -0.13539   -0.29894    0.02784
      -0.03288    0.12601    0.02395   -0.18614   -0.22102   -0.02963   -0.06626    0.07746
      -0.19413   -0.14010   -0.28226    0.08733   -0.13275   -0.23954    0.01801   -0.09730
       0.08249    0.03794   -0.05906    0.00437    0.04613   -0.08531   -0.16184    0.06364
      -0.06118   -0.06876    0.07811   -0.08678   -0.32601    0.01788   -0.10136   -0.11439
       0.01411   -0.03324    0.00157    0.04172    0.00688   -0.06680   -0.05207   -0.00360
       0.08877   -0.02158    0.02746    0.02064    0.02772   -0.06357   -0.01682    0.02602
       0.03975    0.01632    0.03254    0.02191   -0.03964    0.00109   -0.00663   -0.01192
      -0.02223    0.00745    0.00584    0.01375   -0.03102   -0.03353   -0.00609    0.00421
      -0.06586   -0.00497    0.00577   -0.02366   -0.01670    0.01369   -0.04392    0.01144
      -0.05194   -0.00549    0.01266   -0.00952   -0.05084    0.02572   -0.00113    0.00326
       0.03759   -0.00184   -0.02205    0.03383   -0.00631   -0.02476    0.03753
 CYCLE:    39 TIME:   0.023 TIME LEFT:  2.00D  GRAD.:     0.985 HEAT: -172.9120

     GRADIENT =  0.98538 IS LESS THAN CUTOFF =  1.00000



  HEAT OF FORMATION       -172.91198465833440    

 -------------------------------------------------------------------------------
 PM7 CHARGE=-1 EF NOXYZ PRNT=2 PDBOUT COMPFG GRAPHF
 (1S,2S,5S,8S,9R)-2,5,9-trimethyl-11-oxotricyclo[6.3.0.01,5]undec-3-ene-3-carboxylic acid



     GEOMETRY OPTIMISED USING EIGENVECTOR FOLLOWING (EF).     
     SCF FIELD WAS ACHIEVED                                   


                              PM7 CALCULATION
                                                       MOPAC v22.0.6 Linux
                                                       Sun Oct 12 20:25:21 2025




          FINAL HEAT OF FORMATION =       -172.91198 KCAL/MOL =    -723.46374 KJ/MOL


          COSMO AREA              =        255.71 SQUARE ANGSTROMS
          COSMO VOLUME            =        310.22 CUBIC ANGSTROMS

          GRADIENT NORM           =          0.98538          =       0.16200 PER ATOM
          IONIZATION POTENTIAL    =          4.766552 EV
          HOMO LUMO ENERGIES (EV) =         -4.767  3.577
          NO. OF FILLED LEVELS    =         49
          MOLECULAR WEIGHT        =        247.3133         POINT GROUP:  C1  

          MOLECULAR DIMENSIONS (Angstroms)

            Atom       Atom       Distance
            H    36    O     2     8.79729
            H    29    H    34     6.34369
            H    22    O     1     5.41401


          SCF CALCULATIONS        =         47

          WALL-CLOCK TIME         =      0.812 SECONDS
          COMPUTATION TIME        =      0.671 SECONDS




  ATOM               CHEMICAL                 BOND LENGTH      BOND ANGLE     TWIST ANGLE 
 NUMBER               SYMBOL                  (ANGSTROMS)      (DEGREES)       (DEGREES) 
   (I)                                           NA:I           NB:NA:I       NC:NB:NA:I       NA    NB    NC 
     1       O(HETATM    1  O1  HET A   1)   -0.01448319  *    0.0635563  *   -0.0307287  *
     2       O(HETATM    2  O2  HET A   1)    6.34048045  *    1.9209895  *    1.6450951  *     1     0     0
     3       O(HETATM    3  O3  HET A   1)    2.23276282  *   56.1973430  *    0.7097975  *     2     1     0
     4       C(HETATM    4  C1  HET A   1)    2.42744995  *   38.4240459  *  126.8769980  *     1     2     3
     5       C(HETATM    5  C2  HET A   1)    1.55114351  *  128.7555437  * -164.0403928  *     4     1     2
     6       C(HETATM    6  C3  HET A   1)    1.58297194  *  103.2373008  *   72.7133876  *     4     1     2
     7       C(HETATM    7  C4  HET A   1)    1.56334989  *   95.0847531  *  -33.7253871  *     4     1     2
     8       C(HETATM    8  C5  HET A   1)    1.53654697  *  106.5474670  * -134.5469486  *     5     4     1
     9       C(HETATM    9  C6  HET A   1)    1.53449243  *  105.4120169  *   28.9216814  *     8     5     4
    10       C(HETATM   10  C7  HET A   1)    1.55300223  *  106.9024175  *  -14.6702783  *     5     4     1
    11       C(HETATM   11  C8  HET A   1)    1.20298231  *   67.6379029  *  119.3159626  *     1     2     3
    12       C(HETATM   12  C9  HET A   1)    1.51684724  *  122.0350718  * -169.1678848  *    11     1     2
    13       C(HETATM   13  C10 HET A   1)    1.51029793  *  103.3898481  * -114.3889513  *     6     4     1
    14       C(HETATM   14  C11 HET A   1)    1.33578348  *  112.5970571  *    8.6302214  *    13     6     4
    15       C(HETATM   15  C12 HET A   1)    1.52445419  *  113.8418134  *    5.5619182  *     6     4     1
    16       C(HETATM   16  C13 HET A   1)    1.52254843  *  115.7960105  * -113.9639402  *     7     4     1
    17       C(HETATM   17  C14 HET A   1)    1.52753842  *  111.6069997  *  144.6883962  *    10     5     4
    18       C(HETATM   18  C15 HET A   1)    1.23864171  *   25.5294758  *   -7.3945834  *     3     2     1
    19       H(HETATM   19  H2  HET A   1)    1.10753502  *  111.4318652  *  105.1135762  *     5     4     1
    20       H(HETATM   20  H4  HET A   1)    1.12431815  *  108.6585461  *    8.1100374  *     7     4     1
    21       H(HETATM   21 1H5  HET A   1)    1.10813426  *  109.6280802  *  -89.1408032  *     8     5     4
    22       H(HETATM   22 2H5  HET A   1)    1.09630333  *  112.6085934  *  152.0934409  *     8     5     4
    23       H(HETATM   23 1H6  HET A   1)    1.09982283  *  111.0624081  *   86.0029940  *     9     8     5
    24       H(HETATM   24 2H6  HET A   1)    1.10033842  *  111.8624741  * -154.8517975  *     9     8     5
    25       H(HETATM   25  H7  HET A   1)    1.11411992  *  109.2109740  *  -94.7424617  *    10     5     4
    26       H(HETATM   26 1H9  HET A   1)    1.09942552  *  111.4520727  *  -45.0221682  *    12    11     1
    27       H(HETATM   27 2H9  HET A   1)    1.10407963  *  109.3425979  *   71.7249955  *    12    11     1
    28       H(HETATM   28  H10 HET A   1)    1.07179661  *  120.7209637  * -170.5668203  *    13     6     4
    29       H(HETATM   29 1H12 HET A   1)    1.09399128  *  110.9487762  * -175.5064107  *    15     6     4
    30       H(HETATM   30 2H12 HET A   1)    1.10174463  *  110.2903345  *  -56.6109108  *    15     6     4
    31       H(HETATM   31 3H12 HET A   1)    1.09210022  *  112.4364815  *   63.0466872  *    15     6     4
    32       H(HETATM   32 1H13 HET A   1)    1.09452986  *  112.0227655  *  -65.9100024  *    16     7     4
    33       H(HETATM   33 2H13 HET A   1)    1.08947250  *  112.4152176  *   57.9889073  *    16     7     4
    34       H(HETATM   34 3H13 HET A   1)    1.10955060  *  108.3061617  *  177.7820807  *    16     7     4
    35       H(HETATM   35 1H14 HET A   1)    1.09548299  *  110.9513427  *   60.9560218  *    17    10     5
    36       H(HETATM   36 2H14 HET A   1)    1.09372287  *  111.3413432  * -179.0457262  *    17    10     5
    37       H(HETATM   37 3H14 HET A   1)    1.09619301  *  111.5718092  *  -58.7303406  *    17    10     5

                             CARTESIAN COORDINATES

   1    O       -0.014483192     0.063556297    -0.030728710
   2    O        6.325997260     0.063556297    -0.030728710
   3    O        5.083835055     1.918889920    -0.030728710
   4    C        1.887260488    -0.841755304    -1.237499255
   5    C        1.925210543    -1.484607689    -2.648650131
   6    C        2.455800994    -1.938609646    -0.247816266
   7    C        2.800707278     0.407057232    -1.013568252
   8    C        2.774267742    -2.759388499    -2.526125245
   9    C        2.591179569    -3.233720813    -1.078314972
  10    C        0.456058903    -1.800568668    -3.040540480
  11    C        0.443201866    -0.481159560    -1.000767607
  12    C       -0.418662191    -0.870042184    -2.186847789
  13    C        3.812489862    -1.395742010     0.133877182
  14    C        4.008070238    -0.148904860    -0.303687604
  15    C        1.597248379    -2.152874351     0.993529217
  16    C        3.164576532     1.194698838    -2.264717155
  17    C        0.217635181    -1.601652495    -4.536187534
  18    C        5.265756094     0.695608368    -0.099432854
  19    H        2.369956253    -0.797319324    -3.394619152
  20    H        2.288104933     1.103444793    -0.294976216
  21    H        3.839830006    -2.515875951    -2.708444322
  22    H        2.493857407    -3.524628347    -3.259377600
  23    H        1.695501843    -3.864239178    -0.979227864
  24    H        3.443829763    -3.838158439    -0.734240197
  25    H        0.224705704    -2.857307613    -2.774003995
  26    H       -1.354679383    -1.348053334    -1.864181335
  27    H       -0.717273311     0.040081379    -2.735936417
  28    H        4.507616898    -1.997197625     0.685055482
  29    H        2.072100246    -2.859774075     1.680279095
  30    H        1.466584900    -1.203048912     1.536299809
  31    H        0.600366744    -2.527346642     0.751288837
  32    H        3.793297848     0.613931803    -2.946930291
  33    H        2.286143669     1.557331297    -2.797449490
  34    H        3.776298604     2.068978377    -1.960523248
  35    H        0.854404465    -2.269510417    -5.126588796
  36    H       -0.822172205    -1.809066458    -4.804533903
  37    H        0.442936636    -0.574928602    -4.847180155


           Empirical Formula: C15 H19 O3  =    37 atoms



      MOLECULAR POINT GROUP   :   C1  


                  EIGENVALUES  
 -29.36038 -27.92742 -26.74671 -25.15548 -24.14450 -23.74528 -23.16411 -23.09671
 -21.63125 -21.04744 -19.73913 -18.38880 -17.83500 -17.17933 -16.45195 -15.76707
 -14.53316 -13.98422 -13.43315 -13.05352 -12.97168 -12.43814 -12.33494 -11.93966
 -11.67489 -11.47683 -11.33504 -11.06256 -10.54850 -10.46744 -10.18183 -10.12483
  -9.88311  -9.76135  -9.62055  -9.48725  -9.14743  -9.06692  -8.89281  -8.74031
  -8.46896  -8.28503  -8.13418  -8.02929  -7.21122  -5.90831  -5.28379  -5.18428
  -4.76655   3.57656   4.76026   5.53301   5.89131   6.26722   6.34378   6.43606
   6.53637   6.79980   6.89731   7.22716   7.33213   7.40240   7.55078   7.63916
   7.69736   7.75498   7.76324   7.79228   8.03196   8.19733   8.22351   8.34728
   8.37737   8.59642   8.63927   8.66481   8.73885   8.76731   8.88483   8.92897
   9.12547   9.14448   9.24354   9.26083   9.62405   9.86517   9.97366  10.26523
  10.42616  10.73826  11.55031


              NET ATOMIC CHARGES AND DIPOLE CONTRIBUTIONS

  ATOM NO.                 TYPE                        CHARGE      No. of ELECS.   s-Pop       p-Pop       
    1          O(HETATM    1  O1  HET A   1)          -0.486343        6.4863     1.87476     4.61158
    2          O(HETATM    2  O2  HET A   1)          -0.742392        6.7424     1.88434     4.85805
    3          O(HETATM    3  O3  HET A   1)          -0.756640        6.7566     1.88486     4.87178
    4          C(HETATM    4  C1  HET A   1)          -0.107555        4.1076     1.10054     3.00702
    5          C(HETATM    5  C2  HET A   1)          -0.116781        4.1168     1.07733     3.03945
    6          C(HETATM    6  C3  HET A   1)           0.108728        3.8913     1.06581     2.82546
    7          C(HETATM    7  C4  HET A   1)          -0.081218        4.0812     1.06441     3.01681
    8          C(HETATM    8  C5  HET A   1)          -0.280052        4.2801     1.06364     3.21641
    9          C(HETATM    9  C6  HET A   1)          -0.293907        4.2939     1.06692     3.22699
   10          C(HETATM   10  C7  HET A   1)          -0.092302        4.0923     1.06469     3.02761
   11          C(HETATM   11  C8  HET A   1)           0.490406        3.5096     1.13718     2.37242
   12          C(HETATM   12  C9  HET A   1)          -0.421285        4.4213     1.07706     3.34422
   13          C(HETATM   13  C10 HET A   1)          -0.251389        4.2514     1.09016     3.16123
   14          C(HETATM   14  C11 HET A   1)          -0.077665        4.0777     1.14003     2.93763
   15          C(HETATM   15  C12 HET A   1)          -0.471638        4.4716     1.05711     3.41452
   16          C(HETATM   16  C13 HET A   1)          -0.456000        4.4560     1.05398     3.40202
   17          C(HETATM   17  C14 HET A   1)          -0.455844        4.4558     1.05555     3.40029
   18          C(HETATM   18  C15 HET A   1)           0.721605        3.2784     1.05752     2.22087
   19          H(HETATM   19  H2  HET A   1)           0.149867        0.8501     0.85013
   20          H(HETATM   20  H4  HET A   1)           0.167545        0.8325     0.83245
   21          H(HETATM   21 1H5  HET A   1)           0.157227        0.8428     0.84277
   22          H(HETATM   22 2H5  HET A   1)           0.114479        0.8855     0.88552
   23          H(HETATM   23 1H6  HET A   1)           0.117949        0.8821     0.88205
   24          H(HETATM   24 2H6  HET A   1)           0.139818        0.8602     0.86018
   25          H(HETATM   25  H7  HET A   1)           0.129978        0.8700     0.87002
   26          H(HETATM   26 1H9  HET A   1)           0.153575        0.8464     0.84642
   27          H(HETATM   27 2H9  HET A   1)           0.166493        0.8335     0.83351
   28          H(HETATM   28  H10 HET A   1)           0.156259        0.8437     0.84374
   29          H(HETATM   29 1H12 HET A   1)           0.140149        0.8599     0.85985
   30          H(HETATM   30 2H12 HET A   1)           0.174718        0.8253     0.82528
   31          H(HETATM   31 3H12 HET A   1)           0.128551        0.8714     0.87145
   32          H(HETATM   32 1H13 HET A   1)           0.140828        0.8592     0.85917
   33          H(HETATM   33 2H13 HET A   1)           0.118674        0.8813     0.88133
   34          H(HETATM   34 3H13 HET A   1)           0.196559        0.8034     0.80344
   35          H(HETATM   35 1H14 HET A   1)           0.139817        0.8602     0.86018
   36          H(HETATM   36 2H14 HET A   1)           0.130883        0.8691     0.86912
   37          H(HETATM   37 3H14 HET A   1)           0.146905        0.8531     0.85310
 DIPOLE           X         Y         Z       TOTAL
 POINT-CHG.   -11.711    -8.187    -7.173    15.988
 HYBRID        -1.160    -0.396    -0.333     1.270
 SUM          -12.871    -8.582    -7.506    17.195


          ATOMIC ORBITAL ELECTRON POPULATIONS

                   Atom                  s        px        py        pz   
   O(HETATM    1  O1  HET A   1)   1.87476   1.79565   1.40326   1.41268
   O(HETATM    2  O2  HET A   1)   1.88434   1.45794   1.73881   1.66130
   O(HETATM    3  O3  HET A   1)   1.88486   1.88641   1.31250   1.67287
   C(HETATM    4  C1  HET A   1)   1.10054   0.98412   1.03231   0.99059
   C(HETATM    5  C2  HET A   1)   1.07733   0.97202   1.02839   1.03904
   C(HETATM    6  C3  HET A   1)   1.06581   0.98049   0.92271   0.92227
   C(HETATM    7  C4  HET A   1)   1.06441   1.00718   0.98095   1.02868
   C(HETATM    8  C5  HET A   1)   1.06364   1.12956   1.05035   1.03650
   C(HETATM    9  C6  HET A   1)   1.06692   1.14675   1.06876   1.01148
   C(HETATM   10  C7  HET A   1)   1.06469   1.00249   1.07492   0.95020
   C(HETATM   11  C8  HET A   1)   1.13718   0.90839   0.67067   0.79335
   C(HETATM   12  C9  HET A   1)   1.07706   1.10950   1.13201   1.10271
   C(HETATM   13  C10 HET A   1)   1.09016   1.00896   1.04379   1.10847
   C(HETATM   14  C11 HET A   1)   1.14003   1.02326   0.99521   0.91916
   C(HETATM   15  C12 HET A   1)   1.05711   1.12235   1.18873   1.10344
   C(HETATM   16  C13 HET A   1)   1.05398   1.15192   1.16577   1.08433
   C(HETATM   17  C14 HET A   1)   1.05555   1.15933   1.17375   1.06721
   C(HETATM   18  C15 HET A   1)   1.05752   0.77508   0.76906   0.67673
   H(HETATM   19  H2  HET A   1)   0.85013
   H(HETATM   20  H4  HET A   1)   0.83245
   H(HETATM   21 1H5  HET A   1)   0.84277
   H(HETATM   22 2H5  HET A   1)   0.88552
   H(HETATM   23 1H6  HET A   1)   0.88205
   H(HETATM   24 2H6  HET A   1)   0.86018
   H(HETATM   25  H7  HET A   1)   0.87002
   H(HETATM   26 1H9  HET A   1)   0.84642
   H(HETATM   27 2H9  HET A   1)   0.83351
   H(HETATM   28  H10 HET A   1)   0.84374
   H(HETATM   29 1H12 HET A   1)   0.85985
   H(HETATM   30 2H12 HET A   1)   0.82528
   H(HETATM   31 3H12 HET A   1)   0.87145
   H(HETATM   32 1H13 HET A   1)   0.85917
   H(HETATM   33 2H13 HET A   1)   0.88133
   H(HETATM   34 3H13 HET A   1)   0.80344
   H(HETATM   35 1H14 HET A   1)   0.86018
   H(HETATM   36 2H14 HET A   1)   0.86912
   H(HETATM   37 3H14 HET A   1)   0.85310

           DATA FOR GRAPH WRITTEN TO DISK

 **********************
 *                    *
 * JOB ENDED NORMALLY *
 *                    *
 **********************



 TOTAL JOB TIME:             0.82 SECONDS

 == MOPAC DONE ==
