 *******************************************************************************
 **                                                                           **
 **                              MOPAC v22.0.6                                **
 **                                                                           **
 *******************************************************************************
 **          Digital Object Identifier (DOI): 10.5281/zenodo.6511958          **
 **    Visit the DOI location for information on how to cite this program.    **
 *******************************************************************************

                              PM7 CALCULATION RESULTS

 *******************************************************************************
 *  CALCULATION DONE:                                Sun Oct  5 23:49:03 2025  *
 *  PM7        - The PM7 Hamiltonian to be used
 *  PDBOUT     - PRINT GEOMETRY IN PDB FORMAT
 *  RESIDUES   - DETERMINE THE SEQUENCE OF RESIDUES
 *
 *
 *
 *                 CHARGE ON SYSTEM = 0
 *
 *
 *
 *  EF         - USE EF ROUTINE FOR MINIMUM SEARCH
 *  T=         - A TIME OF 172800.0 SECONDS REQUESTED
 *  DUMP=N     - RESTART FILE WRITTEN EVERY 7200.0 SECONDS REQUESTED
 *  NOXYZ      - CARTESIAN COORDINATES NOT TO BE PRINTED
 *  PRNT       - EXTRA PRINTING IN EF ROUTINE
 *  GRAPH      - GENERATE FILE FOR GRAPHICS
 *  COMPFG     - PRINT HEAT OF FORMATION CALC'D IN COMPFG
 *******************************************************************************
PM7 CHARGE=0 EF NOXYZ PRNT=2 PDBOUT COMPFG GRAPHF
 3001664

  ATOM    CHEMICAL      BOND LENGTH      BOND ANGLE     TWIST ANGLE 
 NUMBER    SYMBOL       (ANGSTROMS)      (DEGREES)       (DEGREES) 
   (I)                     NA:I           NB:NA:I       NC:NB:NA:I       NA    NB    NC 
     1       O          0.00000000  *    0.0000000  *    0.0000000  *     0     0     0
     2       O          7.07222800  *    0.0000000  *    0.0000000  *     1     0     0
     3       O          3.21537900  *   67.7050620  *    0.0000000  *     2     1     0
     4       O          4.85899200  *   64.2418670  * -108.3343330  *     2     1     3
     5       O          4.81757900  *   97.0587650  *   76.6593100  *     3     2     1
     6       O          2.81136600  *   30.5567950  * -167.5272090  *     4     2     1
     7       O          2.75503400  *   29.8907930  *  130.6707890  *     5     3     2
     8       C          1.43204500  *   17.9061370  * -169.6282250  *     1     2     3
     9       C          1.57203400  *  106.7893500  *   99.9438770  *     8     1     2
    10       C          1.56300300  *  105.4071680  *  -21.1181300  *     8     1     2
    11       C          1.55534300  *  114.9305920  * -170.3335680  *     9     8     1
    12       C          1.53043100  *  115.6531620  * -159.6351950  *    10     8     1
    13       C          1.52434900  *  111.8245990  *   88.2185200  *    11     9     8
    14       C          1.55308500  *  106.2130160  * -139.3097390  *     8     1     2
    15       C          1.55144800  *  112.5278310  *   63.7706950  *     9     8     1
    16       C          1.41044600  *  122.0564350  *  -92.0765020  *    12    10     8
    17       C          1.40802400  *  121.7132170  *  -94.4126290  *    13    11     9
    18       C          1.39668300  *  118.7572930  *   89.0980210  *    12    10     8
    19       C          1.39649500  *  118.5856420  *   83.9618520  *    13    11     9
    20       C          1.38732400  *   37.7431800  *  -94.3342290  *     2     1     3
    21       C          1.38563600  *   76.0043710  *   54.9188700  *     3     2     1
    22       C          1.38214800  *   28.1583650  *   15.6224900  *     4     2     1
    23       C          1.38950500  *   30.8857790  *  -48.3864280  *     5     3     2
    24       C          1.38306200  *   59.8200380  *   -2.1614640  *     6     4     2
    25       C          1.38217800  *   60.5690940  *   -1.0020180  *     7     5     3
    26       C          1.44745000  *  144.3639660  *  -26.6979800  *     2     1     3
    27       C          1.44469000  *  156.1453220  *  -80.1319310  *     3     2     1
    28       C          1.44584600  *  106.5729580  *  138.8849000  *     4     2     1
    29       C          1.44547600  *  153.9645730  *  -67.2211970  *     5     3     2
    30       C          1.44236000  *  111.1727390  *  109.5206770  *     6     4     2
    31       C          1.44132400  *   98.6332830  * -118.7436510  *     7     5     3
    32       H          1.09409000  *  106.9549620  *  -51.5939100  *     9     8     1
    33       H          1.09244700  *  109.6389270  *   74.5966460  *    10     8     1
    34       H          1.09380600  *  108.4285290  *  -39.1610020  *    10     8     1
    35       H          1.09113100  *  111.2004690  *  -37.4364660  *    11     9     8
    36       H          1.09313700  *  109.4182670  * -153.0286370  *    11     9     8
    37       H          1.09241800  *  110.5394620  *   64.4437210  *    14     8     1
    38       H          1.09173700  *  111.7076110  * -175.0920940  *    14     8     1
    39       H          1.09192100  *  111.4730090  *  -54.2418510  *    14     8     1
    40       H          1.09260300  *  110.2200040  * -170.0807210  *    15     9     8
    41       H          1.09198500  *  111.4752090  *  -51.0329070  *    15     9     8
    42       H          1.09221400  *  111.3625150  *   70.4043950  *    15     9     8
    43       H          0.97443900  *  125.2809080  * -147.0842440  *     1     2     3
    44       H          1.08719800  *  119.9039740  *    0.3626340  *    18    12    10
    45       H          1.08603800  *  118.6879380  *    2.1397620  *    19    13    11
    46       H          1.09252200  *  108.7827940  *  131.7877560  *    26     2     1
    47       H          1.09267300  *  109.6191750  *   12.1718600  *    26     2     1
    48       H          1.09217800  *  110.1728890  * -108.4208480  *    26     2     1
    49       H          1.09311000  *  110.0035240  * -171.1916570  *    27     3     2
    50       H          1.09319500  *  109.2524800  *   68.2747780  *    27     3     2
    51       H          1.09277700  *  108.8186240  *  -51.3895650  *    27     3     2
    52       H          1.09328400  *  109.2430440  *  -86.5216140  *    28     4     2
    53       H          1.09281100  *  108.8360340  *  153.8717760  *    28     4     2
    54       H          1.09284700  *  110.1355040  *   34.0220990  *    28     4     2
    55       H          1.09330100  *  109.6059530  *   74.2276630  *    29     5     3
    56       H          1.09347200  *  109.4728180  *  -46.8345890  *    29     5     3
    57       H          1.09324700  *  108.6786480  * -166.2929810  *    29     5     3
    58       H          1.09283400  *  108.9339340  *  113.9250170  *    30     6     4
    59       H          1.09354800  *  109.2037160  *   -5.8305420  *    30     6     4
    60       H          1.09372800  *  109.4365710  * -126.2057770  *    30     6     4
    61       H          1.09367500  *  109.1827050  *  121.0988790  *    31     7     5
    62       H          1.09362900  *  109.3212220  *    0.7890460  *    31     7     5
    63       H          1.09267500  *  108.9546210  * -119.0546790  *    31     7     5


 General Reference for PM7:
 "Optimization of Parameters for Semiempirical Methods VI: More Modifications to the 
 NDDO Approximations and Re-optimization of Parameters", J. J. P. Stewart, J. Mol. Mod., 1:32, 19 (2013)
 https://link.springer.com/article/10.1007/s00894-012-1667-x

           Empirical Formula: C24 H32 O7  =    63 atoms



      MOLECULAR POINT GROUP   :   C1  


      RHF CALCULATION, NO. OF DOUBLY OCCUPIED LEVELS = 85


          Geometry optimization using EF

  HEAT OF FORMATION       -222.47943082245183    
 PARAMETERS        0.000   0.000   0.000   7.072   0.000   0.000   3.215   1.182
   0.000   4.859   1.121   4.392   4.818   1.694   1.338   2.811   0.533   3.359

   2.755   0.522   2.281   1.432   0.313   3.323   1.572   1.864   1.744   1.563

   1.840   5.915   1.555   2.006   3.310   1.530   2.019   3.497   1.524   1.952

   1.540   1.553   1.854   3.852   1.551   1.964   1.113   1.410   2.130   4.676

   1.408   2.124   4.635   1.397   2.073   1.555   1.396   2.070   1.465   1.387

   0.659   4.637   1.386   1.327   0.959   1.382   0.491   0.273   1.390   0.539

   5.439   1.383   1.044   6.245   1.382   1.057   6.266   1.447   2.520   5.817

   1.445   2.725   4.885   1.446   1.860   2.424   1.445   2.687   5.110   1.442

   1.940   1.911   1.441   1.721   4.211   1.094   1.867   5.383   1.092   1.914

   1.302   1.094   1.892   5.600   1.091   1.941   5.630   1.093   1.910   3.612

   1.092   1.929   1.125   1.092   1.950   3.227   1.092   1.946   5.336   1.093

   1.924   3.315   1.092   1.946   5.392   1.092   1.944   1.229   0.974   2.187

   3.716   1.087   2.093   0.006   1.086   2.071   0.037   1.093   1.899   2.300

   1.093   1.913   0.212   1.092   1.923   4.391   1.093   1.920   3.295   1.093

   1.907   1.192   1.093   1.899   5.386   1.093   1.907   4.773   1.093   1.900

   2.686   1.093   1.922   0.594   1.093   1.913   1.296   1.093   1.911   5.466

   1.093   1.897   3.381   1.093   1.901   1.988   1.094   1.906   6.181   1.094

   1.910   4.080   1.094   1.906   2.114   1.094   1.908   0.014   1.093   1.902

   4.205
 GRADIENT          0.000   0.000   0.000  19.523   0.000   0.000  13.653  39.745
   0.000  14.952   9.352   1.161   8.558  12.507  -4.251  -5.143   0.491  12.372

  -3.974 -24.688  -9.881  -6.378  46.514 -18.080  48.843 -97.408  87.230  20.699

  -4.772 -54.370  11.374  91.968  36.105  27.229   4.935  52.276  19.774   7.547

  76.329  14.432  -6.527   0.317   9.735   6.767  -6.871 -10.655  29.549   2.349

 -11.891  32.283  -3.140  -2.060  13.186  -2.669   0.558   3.538   2.930  19.068

 -12.295 -13.867  15.379 -27.065  20.031  19.176  18.287 -13.260  30.939 -50.765

   3.673  22.542 -11.968 -32.411  32.696   8.851  31.110  32.248  17.907   9.553

  29.862 -17.937  -6.773  30.723  23.133   6.260  32.942  27.614  -3.062  25.610

   8.345  20.423  24.375  10.818 -19.145 -16.477   5.381   1.979  -8.666   2.089

  -2.335 -11.138   4.517  -3.080  -8.274   1.546  -3.343 -10.290   1.029  -3.049

  -1.760   0.916  -0.820  -1.269   1.245   0.768  -0.287   0.344   0.681  -1.697

  -0.798  -0.171  -0.797  -0.732   0.007  -1.290  -0.408   0.415  -1.280  -5.178

  -0.228  -1.974  -0.774  -0.732   0.019  -1.726   0.264   2.516  16.211   0.468

  -2.531   2.564  -1.071  -2.041   4.106  -0.193  -2.248   2.725  -0.521  -1.298

   1.906   0.779   2.792  15.922  -0.004  -0.981   1.878   0.610   2.677  15.597

   0.226  -2.342   3.142  -0.504  -1.132   1.076  -0.804  -1.207   0.922   0.769

   2.533  16.467  -0.150   3.068  15.059   0.175  -1.174   1.011  -0.761  -1.805

   1.551   0.500  -1.273   0.636  -0.688  -1.269   1.108   0.885   2.884  14.965

  -0.199

          DIAGONAL MATRIX USED AS START HESSIAN

*REMARK   3 HET = Not identified; C 24 H 32 O 7      =    63 atoms res:    1
 PM7 CHARGE=0 EF NOXYZ PRNT=2 PDBOUT COMPFG GRAPHF
 3001664

  O(HETATM    1  O1  HET A   1)   0.00000000 +1    0.0000000 +1    0.0000000 +1
  O(HETATM    2  O2  HET A   1)   7.07222800 +1    0.0000000 +1    0.0000000 +1     1     0     0
  O(HETATM    3  O3  HET A   1)   3.21537900 +1   67.7050620 +1    0.0000000 +1     2     1     0
  O(HETATM    4  O4  HET A   1)   4.85899200 +1   64.2418670 +1 -108.3343330 +1     2     1     3
  O(HETATM    5  O5  HET A   1)   4.81757900 +1   97.0587650 +1   76.6593100 +1     3     2     1
  O(HETATM    6  O6  HET A   1)   2.81136600 +1   30.5567950 +1 -167.5272090 +1     4     2     1
  O(HETATM    7  O7  HET A   1)   2.75503400 +1   29.8907930 +1  130.6707890 +1     5     3     2
  C(HETATM    8  C1  HET A   1)   1.43204500 +1   17.9061370 +1 -169.6282250 +1     1     2     3
  C(HETATM    9  C2  HET A   1)   1.57203400 +1  106.7893500 +1   99.9438770 +1     8     1     2
  C(HETATM   10  C3  HET A   1)   1.56300300 +1  105.4071680 +1  -21.1181300 +1     8     1     2
  C(HETATM   11  C4  HET A   1)   1.55534300 +1  114.9305920 +1 -170.3335680 +1     9     8     1
  C(HETATM   12  C5  HET A   1)   1.53043100 +1  115.6531620 +1 -159.6351950 +1    10     8     1
  C(HETATM   13  C6  HET A   1)   1.52434900 +1  111.8245990 +1   88.2185200 +1    11     9     8
  C(HETATM   14  C7  HET A   1)   1.55308500 +1  106.2130160 +1 -139.3097390 +1     8     1     2
  C(HETATM   15  C8  HET A   1)   1.55144800 +1  112.5278310 +1   63.7706950 +1     9     8     1
  C(HETATM   16  C9  HET A   1)   1.41044600 +1  122.0564350 +1  -92.0765020 +1    12    10     8
  C(HETATM   17  C10 HET A   1)   1.40802400 +1  121.7132170 +1  -94.4126290 +1    13    11     9
  C(HETATM   18  C11 HET A   1)   1.39668300 +1  118.7572930 +1   89.0980210 +1    12    10     8
  C(HETATM   19  C12 HET A   1)   1.39649500 +1  118.5856420 +1   83.9618520 +1    13    11     9
  C(HETATM   20  C13 HET A   1)   1.38732400 +1   37.7431800 +1  -94.3342290 +1     2     1     3
  C(HETATM   21  C14 HET A   1)   1.38563600 +1   76.0043710 +1   54.9188700 +1     3     2     1
  C(HETATM   22  C15 HET A   1)   1.38214800 +1   28.1583650 +1   15.6224900 +1     4     2     1
  C(HETATM   23  C16 HET A   1)   1.38950500 +1   30.8857790 +1  -48.3864280 +1     5     3     2
  C(HETATM   24  C17 HET A   1)   1.38306200 +1   59.8200380 +1   -2.1614640 +1     6     4     2
  C(HETATM   25  C18 HET A   1)   1.38217800 +1   60.5690940 +1   -1.0020180 +1     7     5     3
  C(HETATM   26  C19 HET A   1)   1.44745000 +1  144.3639660 +1  -26.6979800 +1     2     1     3
  C(HETATM   27  C20 HET A   1)   1.44469000 +1  156.1453220 +1  -80.1319310 +1     3     2     1
  C(HETATM   28  C21 HET A   1)   1.44584600 +1  106.5729580 +1  138.8849000 +1     4     2     1
  C(HETATM   29  C22 HET A   1)   1.44547600 +1  153.9645730 +1  -67.2211970 +1     5     3     2
  C(HETATM   30  C23 HET A   1)   1.44236000 +1  111.1727390 +1  109.5206770 +1     6     4     2
  C(HETATM   31  C24 HET A   1)   1.44132400 +1   98.6332830 +1 -118.7436510 +1     7     5     3
  H(HETATM   32  H2  HET A   1)   1.09409000 +1  106.9549620 +1  -51.5939100 +1     9     8     1
  H(HETATM   33 1H3  HET A   1)   1.09244700 +1  109.6389270 +1   74.5966460 +1    10     8     1
  H(HETATM   34 2H3  HET A   1)   1.09380600 +1  108.4285290 +1  -39.1610020 +1    10     8     1
  H(HETATM   35 1H4  HET A   1)   1.09113100 +1  111.2004690 +1  -37.4364660 +1    11     9     8
  H(HETATM   36 2H4  HET A   1)   1.09313700 +1  109.4182670 +1 -153.0286370 +1    11     9     8
  H(HETATM   37 1H7  HET A   1)   1.09241800 +1  110.5394620 +1   64.4437210 +1    14     8     1
  H(HETATM   38 2H7  HET A   1)   1.09173700 +1  111.7076110 +1 -175.0920940 +1    14     8     1
  H(HETATM   39 3H7  HET A   1)   1.09192100 +1  111.4730090 +1  -54.2418510 +1    14     8     1
  H(HETATM   40 1H8  HET A   1)   1.09260300 +1  110.2200040 +1 -170.0807210 +1    15     9     8
  H(HETATM   41 2H8  HET A   1)   1.09198500 +1  111.4752090 +1  -51.0329070 +1    15     9     8
  H(HETATM   42 3H8  HET A   1)   1.09221400 +1  111.3625150 +1   70.4043950 +1    15     9     8
  H(HETATM   43  H1  HET A   1)   0.97443900 +1  125.2809080 +1 -147.0842440 +1     1     2     3
  H(HETATM   44  H11 HET A   1)   1.08719800 +1  119.9039740 +1    0.3626340 +1    18    12    10
  H(HETATM   45  H12 HET A   1)   1.08603800 +1  118.6879380 +1    2.1397620 +1    19    13    11
  H(HETATM   46 1H19 HET A   1)   1.09252200 +1  108.7827940 +1  131.7877560 +1    26     2     1
  H(HETATM   47 2H19 HET A   1)   1.09267300 +1  109.6191750 +1   12.1718600 +1    26     2     1
  H(HETATM   48 3H19 HET A   1)   1.09217800 +1  110.1728890 +1 -108.4208480 +1    26     2     1
  H(HETATM   49 1H20 HET A   1)   1.09311000 +1  110.0035240 +1 -171.1916570 +1    27     3     2
  H(HETATM   50 2H20 HET A   1)   1.09319500 +1  109.2524800 +1   68.2747780 +1    27     3     2
  H(HETATM   51 3H20 HET A   1)   1.09277700 +1  108.8186240 +1  -51.3895650 +1    27     3     2
  H(HETATM   52 1H21 HET A   1)   1.09328400 +1  109.2430440 +1  -86.5216140 +1    28     4     2
  H(HETATM   53 2H21 HET A   1)   1.09281100 +1  108.8360340 +1  153.8717760 +1    28     4     2
  H(HETATM   54 3H21 HET A   1)   1.09284700 +1  110.1355040 +1   34.0220990 +1    28     4     2
  H(HETATM   55 1H22 HET A   1)   1.09330100 +1  109.6059530 +1   74.2276630 +1    29     5     3
  H(HETATM   56 2H22 HET A   1)   1.09347200 +1  109.4728180 +1  -46.8345890 +1    29     5     3
  H(HETATM   57 3H22 HET A   1)   1.09324700 +1  108.6786480 +1 -166.2929810 +1    29     5     3
  H(HETATM   58 1H23 HET A   1)   1.09283400 +1  108.9339340 +1  113.9250170 +1    30     6     4
  H(HETATM   59 2H23 HET A   1)   1.09354800 +1  109.2037160 +1   -5.8305420 +1    30     6     4
  H(HETATM   60 3H23 HET A   1)   1.09372800 +1  109.4365710 +1 -126.2057770 +1    30     6     4
  H(HETATM   61 1H24 HET A   1)   1.09367500 +1  109.1827050 +1  121.0988790 +1    31     7     5
  H(HETATM   62 2H24 HET A   1)   1.09362900 +1  109.3212220 +1    0.7890460 +1    31     7     5
  H(HETATM   63 3H24 HET A   1)   1.09267500 +1  108.9546210 +1 -119.0546790 +1    31     7     5

 XPARAM 
  1  1    0.0000  1  2    0.0000  1  3    0.0000  2  1    7.0722  2  2    0.0000
  2  3    0.0000  3  1    3.2154  3  2    1.1817  3  3    0.0000  4  1    4.8590
  4  2    1.1212  4  3    4.3924  5  1    4.8176  5  2    1.6940  5  3    1.3380
  6  1    2.8114  6  2    0.5333  6  3    3.3593  7  1    2.7550  7  2    0.5217
  7  3    2.2806  8  1    1.4320  8  2    0.3125  8  3    3.3226  9  1    1.5720
  9  2    1.8638  9  3    1.7443 10  1    1.5630 10  2    1.8397 10  3    5.9146
 11  1    1.5553 11  2    2.0059 11  3    3.3103 12  1    1.5304 12  2    2.0185
 12  3    3.4970 13  1    1.5243 13  2    1.9517 13  3    1.5397 14  1    1.5531
 14  2    1.8538 14  3    3.8518 15  1    1.5514 15  2    1.9640 15  3    1.1130
 16  1    1.4104 16  2    2.1303 16  3    4.6761 17  1    1.4080 17  2    2.1243
 17  3    4.6354 18  1    1.3967 18  2    2.0727 18  3    1.5551 19  1    1.3965
 19  2    2.0697 19  3    1.4654 20  1    1.3873 20  2    0.6587 20  3    4.6367
 21  1    1.3856 21  2    1.3265 21  3    0.9585 22  1    1.3821 22  2    0.4915
 22  3    0.2727 23  1    1.3895 23  2    0.5391 23  3    5.4387 24  1    1.3831
 24  2    1.0441 24  3    6.2455 25  1    1.3822 25  2    1.0571 25  3    6.2657
 26  1    1.4474 26  2    2.5196 26  3    5.8172 27  1    1.4447 27  2    2.7252
 27  3    4.8846 28  1    1.4458 28  2    1.8600 28  3    2.4240 29  1    1.4455
 29  2    2.6872 29  3    5.1100 30  1    1.4424 30  2    1.9403 30  3    1.9115
 31  1    1.4413 31  2    1.7215 31  3    4.2107 32  1    1.0941 32  2    1.8667
 32  3    5.3827 33  1    1.0924 33  2    1.9136 33  3    1.3020 34  1    1.0938
 34  2    1.8924 34  3    5.5997 35  1    1.0911 35  2    1.9408 35  3    5.6298
 36  1    1.0931 36  2    1.9097 36  3    3.6123 37  1    1.0924 37  2    1.9293
 37  3    1.1248 38  1    1.0917 38  2    1.9497 38  3    3.2273 39  1    1.0919
 39  2    1.9456 39  3    5.3365 40  1    1.0926 40  2    1.9237 40  3    3.3147
 41  1    1.0920 41  2    1.9456 41  3    5.3925 42  1    1.0922 42  2    1.9436
 42  3    1.2288 43  1    0.9744 43  2    2.1866 43  3    3.7161 44  1    1.0872
 44  2    2.0927 44  3    0.0063 45  1    1.0860 45  2    2.0715 45  3    0.0373
 46  1    1.0925 46  2    1.8986 46  3    2.3001 47  1    1.0927 47  2    1.9132
 47  3    0.2124 48  1    1.0922 48  2    1.9229 48  3    4.3909 49  1    1.0931
 49  2    1.9199 49  3    3.2953 50  1    1.0932 50  2    1.9068 50  3    1.1916
 51  1    1.0928 51  2    1.8992 51  3    5.3863 52  1    1.0933 52  2    1.9067
 52  3    4.7731 53  1    1.0928 53  2    1.8995 53  3    2.6856 54  1    1.0928
 54  2    1.9222 54  3    0.5938 55  1    1.0933 55  2    1.9130 55  3    1.2955
 56  1    1.0935 56  2    1.9107 56  3    5.4658 57  1    1.0932 57  2    1.8968
 57  3    3.3808 58  1    1.0928 58  2    1.9013 58  3    1.9884 59  1    1.0935
 59  2    1.9060 59  3    6.1814 60  1    1.0937 60  2    1.9100 60  3    4.0805
 61  1    1.0937 61  2    1.9056 61  3    2.1136 62  1    1.0936 62  2    1.9080
 62  3    0.0138 63  1    1.0927 63  2    1.9016 63  3    4.2053
 grad
       0.00001    0.00000    0.00001   19.52271    0.00000    0.00000   13.65299   39.74511
       0.00000   14.95236    9.35151    1.16054    8.55763   12.50675   -4.25095   -5.14350
       0.49106   12.37171   -3.97397  -24.68789   -9.88058   -6.37753   46.51427  -18.07953
      48.84256  -97.40811   87.23039   20.69923   -4.77226  -54.37043   11.37425   91.96756
      36.10473   27.22928    4.93526   52.27560   19.77433    7.54658   76.32858   14.43159
      -6.52675    0.31704    9.73455    6.76673   -6.87051  -10.65520   29.54876    2.34868
     -11.89054   32.28282   -3.13959   -2.06047   13.18580   -2.66935    0.55758    3.53820
       2.92974   19.06767  -12.29461  -13.86736   15.37948  -27.06546   20.03089   19.17635
      18.28670  -13.25967   30.93875  -50.76513    3.67317   22.54209  -11.96826  -32.41092
      32.69613    8.85139   31.10996   32.24775   17.90704    9.55321   29.86216  -17.93720
      -6.77316   30.72348   23.13286    6.26034   32.94185   27.61420   -3.06247   25.61028
       8.34537   20.42333   24.37460   10.81776  -19.14515  -16.47732    5.38121    1.97875
      -8.66608    2.08893   -2.33517  -11.13810    4.51704   -3.07973   -8.27389    1.54596
      -3.34274  -10.29010    1.02916   -3.04942   -1.75980    0.91641   -0.82028   -1.26853
       1.24490    0.76849   -0.28745    0.34370    0.68069   -1.69657   -0.79775   -0.17109
      -0.79689   -0.73172    0.00723   -1.28961   -0.40779    0.41536   -1.27992   -5.17757
      -0.22807   -1.97359   -0.77431   -0.73174    0.01881   -1.72621    0.26384    2.51611
      16.21141    0.46757   -2.53058    2.56432   -1.07075   -2.04137    4.10642   -0.19326
      -2.24840    2.72451   -0.52083   -1.29841    1.90555    0.77854    2.79162   15.92231
      -0.00373   -0.98098    1.87758    0.60961    2.67658   15.59680    0.22590   -2.34183
       3.14244   -0.50441   -1.13238    1.07554   -0.80382   -1.20698    0.92192    0.76889
       2.53315   16.46658   -0.15036    3.06839   15.05938    0.17517   -1.17400    1.01094
      -0.76083   -1.80520    1.55058    0.50040   -1.27252    0.63589   -0.68776   -1.26887
       1.10814    0.88539    2.88398   14.96538   -0.19928
 CYCLE:     1 TIME:   0.102 TIME LEFT:  2.00D  GRAD.:   269.387 HEAT: -222.4794

          HESSIAN HAS  0 NEGATIVE EIGENVALUE(S)
  MIN SEARCH, CORRECT HESSIAN, TRYING PURE NR STEP
 LAMBDA THAT MINIMIZES ALONG ALL MODES =        0.000000000
 PURE NR-STEP HAS LENGTH   0.85301
 LAMBDA THAT MINIMIZES ALONG ALL MODES =     -129.830942731
 P-RFO-STEP   HAS LENGTH   0.55205
 LAMBDA THAT MINIMIZES ALONG ALL MODES =     -870.927800643
 QA/TRIM-STEP HAS LENGTH   0.20000

  HEAT OF FORMATION        3843.5283064140531    
 PARAMETERS        0.005   0.008   0.006   7.067   0.004  -0.003   3.214   1.159
   0.003   4.860   1.116   4.392   4.820   1.689   1.344   2.822   0.537   3.351

   2.764   0.545   2.293   1.442   0.283   3.344   1.552   1.940   1.668   1.561

   1.845   5.971   1.557   1.943   3.282   1.523   2.019   3.454   1.520   1.952

   1.474   1.553   1.862   3.857   1.552   1.965   1.125   1.424   2.112   4.680

   1.423   2.104   4.644   1.404   2.069   1.563   1.402   2.073   1.468   1.385

   0.671   4.654   1.383   1.352   0.945   1.377   0.484   0.289   1.381   0.579

   5.440   1.380   1.055   6.280   1.374   1.053   6.241   1.439   2.509   5.814

   1.437   2.741   4.897   1.436   1.848   2.424   1.437   2.670   5.119   1.435

   1.939   1.898   1.436   1.717   4.234   1.105   1.864   5.383   1.099   1.914

   1.306   1.102   1.890   5.604   1.098   1.940   5.635   1.101   1.910   3.617

   1.095   1.930   1.127   1.095   1.950   3.228   1.095   1.946   5.338   1.096

   1.926   3.317   1.095   1.947   5.394   1.095   1.946   1.230   0.977   2.192

   3.718   1.090   2.095   0.009   1.088   2.075   0.039   1.093   1.888   2.301

   1.096   1.913   0.215   1.096   1.921   4.393   1.096   1.919   3.298   1.096

   1.907   1.193   1.094   1.888   5.388   1.096   1.906   4.774   1.093   1.890

   2.687   1.096   1.922   0.596   1.096   1.914   1.298   1.097   1.911   5.467

   1.094   1.886   3.383   1.093   1.892   1.990   1.097   1.906   6.184   1.097

   1.910   4.082   1.096   1.907   2.116   1.096   1.909   0.015   1.093   1.892

   4.207
 GRADIENT         -0.000  -0.000  -0.000-346.598   0.000   0.000-407.273********
   0.000  69.432 160.734 -49.215  28.855-963.064********  -7.225  63.019   2.208

 -90.122-116.166  -2.114 209.630********1430.081************************9540.090

****************6724.868********************************************************

********  19.909  -0.784  -0.949  12.896   4.629  -5.008************************

************************ -21.891  71.954   2.615 340.414 748.094 -50.499  57.664

-161.492  39.153 159.363-133.183-175.030 -22.655  22.108 -15.121 276.527 378.579

   4.101  -3.135 -23.989 -14.559  80.823 -87.608  -6.271  21.527  20.675   5.118

  17.880  -8.330  -1.559  19.842  19.704   9.088  16.325  19.333  -2.720  16.592

   4.085  13.547  16.908   4.726  -9.811  -7.106  -0.963   4.104  -6.995   3.994

   6.180  -4.809   1.215   0.606  -7.949   5.168   7.227  -2.643  -1.328   1.802

   0.066   1.722  -1.243   0.537   1.076   1.447   1.617   1.434   0.915   0.700

  -0.589   0.039   1.469   0.816  -0.416   0.510   0.270   0.988   3.837   1.312

  -0.035 -11.657  18.749  -6.753-119.134 148.093 -11.242   2.651  13.979   0.391

  -1.213   0.803  -0.966   0.155   3.857  -0.083   0.124   1.814  -0.771   0.290

   0.903   1.181   2.710  11.255  -0.078   0.676   0.045   0.511   3.185  13.448

   0.202  -0.241   2.008  -0.450   0.695  -1.252  -1.185   0.837  -1.068   1.468

   2.404  11.976  -0.274   2.709  12.488   0.271   0.245   0.659  -0.976  -0.249

   0.553   0.670  -0.073   0.323  -1.044  -0.014   0.966   1.063   2.692  11.964

  -0.111
       HoF         ACTUAL,  PREDICTED ENERGY CHANGE, RATIO
  3843.5283064  4066.0077372         -42.3270021  -96.0617935
 UNACCEPTABLE RATIO, REJECTING STEP, REDUCING DMAX TO 0.1000
  MIN SEARCH, CORRECT HESSIAN, TRYING PURE NR STEP
 LAMBDA THAT MINIMIZES ALONG ALL MODES =        0.000000000
 PURE NR-STEP HAS LENGTH   0.85301
 LAMBDA THAT MINIMIZES ALONG ALL MODES =     -129.830942731
 P-RFO-STEP   HAS LENGTH   0.55205
 LAMBDA THAT MINIMIZES ALONG ALL MODES =    -2107.284167484
 QA/TRIM-STEP HAS LENGTH   0.10000

  HEAT OF FORMATION        79.531462327329791    
 PARAMETERS        0.003   0.004   0.003   7.069   0.002  -0.001   3.214   1.170
   0.001   4.860   1.119   4.392   4.819   1.691   1.340   2.818   0.535   3.355

   2.761   0.534   2.286   1.438   0.297   3.332   1.560   1.904   1.709   1.562

   1.843   5.941   1.556   1.973   3.297   1.526   2.019   3.477   1.522   1.952

   1.509   1.553   1.858   3.854   1.552   1.964   1.118   1.419   2.121   4.678

   1.417   2.114   4.639   1.401   2.070   1.559   1.400   2.071   1.467   1.386

   0.665   4.645   1.384   1.340   0.952   1.379   0.488   0.280   1.385   0.560

   5.439   1.381   1.050   6.262   1.377   1.055   6.254   1.443   2.514   5.816

   1.440   2.734   4.890   1.440   1.854   2.424   1.440   2.678   5.114   1.438

   1.940   1.905   1.438   1.719   4.221   1.101   1.865   5.383   1.096   1.914

   1.304   1.099   1.891   5.602   1.095   1.941   5.632   1.098   1.910   3.614

   1.094   1.930   1.126   1.093   1.950   3.228   1.094   1.946   5.337   1.094

   1.925   3.316   1.094   1.946   5.393   1.094   1.945   1.229   0.976   2.189

   3.717   1.089   2.094   0.007   1.087   2.073   0.038   1.093   1.893   2.301

   1.094   1.913   0.214   1.094   1.922   4.392   1.095   1.920   3.296   1.095

   1.907   1.192   1.093   1.894   5.387   1.095   1.906   4.774   1.093   1.894

   2.686   1.095   1.922   0.595   1.095   1.913   1.297   1.095   1.911   5.466

   1.094   1.891   3.382   1.093   1.896   1.989   1.096   1.906   6.183   1.096

   1.910   4.081   1.095   1.906   2.115   1.095   1.909   0.014   1.093   1.896

   4.206
 GRADIENT          0.000   0.000   0.000-226.546   0.000   0.000-312.076********
   0.000  37.744  46.272 -21.360  40.453-937.224********   1.145  16.158   7.825

 -52.789 -41.756  -7.344 103.923********1347.155********3897.812******** -23.250

-463.2022756.739 204.264****************-623.013 636.496********-119.022 710.358

********  16.897  -3.501  -0.506  11.690   5.497  -5.796 716.839********-248.660

 787.451********-215.485 -10.880  52.529   5.181 253.435 622.412 -26.694  21.416

 -11.734 -11.271  84.794 -57.662 -30.583  -3.355  35.698 -15.364 255.184 421.630

  -1.219  13.667  -3.474 -23.350  45.428 -55.746  17.603  27.073  15.567   8.306

  26.152 -14.978  -3.472  24.695  21.641   5.938  24.560  24.225  -2.918  20.598

   6.598  17.032  20.327   8.168 -16.428 -11.321   2.021   3.094  -7.661   2.786

   1.027  -7.661   3.146  -1.661  -6.958   2.419   0.423  -6.204   0.230  -0.900

  -0.731   1.162  -0.862  -0.175   0.980   0.868   0.819   0.842   0.788  -0.388

  -0.585  -0.011   0.592  -0.083  -0.144  -0.175  -0.140   0.603   1.448  -1.603

  -0.157  -5.908   7.957  -3.494 -53.698  64.699  -1.702   2.504  14.908   0.509

  -1.786   2.337  -1.238  -0.926   3.514  -0.065  -0.895   2.060  -0.659  -0.262

   2.127   0.878   2.946  13.509  -0.050  -0.252   1.273   0.677   2.618  14.666

   0.226  -1.650   2.570  -0.570  -0.203  -0.023  -0.948  -0.034  -0.105   1.085

   2.491  14.170  -0.186   2.940  13.587   0.177  -0.064   0.546  -0.820  -0.750

   0.996   0.589  -0.405   0.247  -0.773  -0.450   0.943   0.852   2.985  13.677

  -0.144
       HoF         ACTUAL,  PREDICTED ENERGY CHANGE, RATIO
    79.5314623   302.0108931         -23.1200978  -13.0626996
 UNACCEPTABLE RATIO, REJECTING STEP, REDUCING DMAX TO 0.0500
  MIN SEARCH, CORRECT HESSIAN, TRYING PURE NR STEP
 LAMBDA THAT MINIMIZES ALONG ALL MODES =        0.000000000
 PURE NR-STEP HAS LENGTH   0.85301
 LAMBDA THAT MINIMIZES ALONG ALL MODES =     -129.830942731
 P-RFO-STEP   HAS LENGTH   0.55205
 LAMBDA THAT MINIMIZES ALONG ALL MODES =    -4618.702527591
 QA/TRIM-STEP HAS LENGTH   0.05000

  HEAT OF FORMATION       -176.32753418060020    
 PARAMETERS        0.002   0.002   0.001   7.070   0.001  -0.001   3.215   1.176
   0.001   4.859   1.120   4.392   4.818   1.693   1.339   2.815   0.534   3.357

   2.758   0.528   2.283   1.435   0.305   3.327   1.565   1.884   1.727   1.562

   1.841   5.927   1.556   1.989   3.304   1.528   2.019   3.487   1.523   1.952

   1.525   1.553   1.856   3.853   1.552   1.964   1.116   1.415   2.125   4.677

   1.413   2.119   4.637   1.399   2.072   1.557   1.398   2.070   1.466   1.387

   0.662   4.641   1.385   1.333   0.955   1.380   0.490   0.276   1.387   0.550

   5.439   1.382   1.047   6.253   1.379   1.056   6.260   1.445   2.517   5.817

   1.442   2.730   4.887   1.443   1.857   2.424   1.443   2.683   5.112   1.440

   1.940   1.908   1.440   1.720   4.216   1.098   1.866   5.383   1.095   1.914

   1.303   1.097   1.892   5.601   1.093   1.941   5.631   1.096   1.910   3.613

   1.093   1.930   1.125   1.093   1.950   3.227   1.093   1.946   5.337   1.094

   1.924   3.315   1.093   1.946   5.393   1.093   1.944   1.229   0.975   2.188

   3.717   1.088   2.093   0.007   1.087   2.072   0.038   1.093   1.896   2.300

   1.094   1.913   0.213   1.093   1.922   4.391   1.094   1.920   3.296   1.094

   1.907   1.192   1.093   1.896   5.387   1.094   1.907   4.773   1.093   1.897

   2.686   1.094   1.922   0.594   1.094   1.913   1.296   1.095   1.911   5.466

   1.094   1.894   3.381   1.093   1.899   1.989   1.095   1.906   6.182   1.095

   1.910   4.081   1.095   1.906   2.114   1.094   1.908   0.014   1.093   1.899

   4.206
 GRADIENT          0.000  -0.000   0.000-106.575   0.000   0.000-141.951-785.291
   0.000  26.262  26.268  -9.290  55.946-423.785-512.859  -1.649   9.124  10.162

 -22.920 -13.646  -8.334  49.045-836.268 704.554-274.0641093.451******** -24.847

  -6.194 672.780  86.219-961.891-501.870-142.980  87.627-830.684 124.794 133.831

********  15.640  -4.929  -0.145  10.821   6.111  -6.343 160.090-409.216 -17.014

 211.947-388.366 -19.337  -6.658  32.759   1.569  88.298 326.335  -8.528  16.438

  -1.042 -16.022  49.073 -48.121 -11.303   7.909  27.706 -14.401 111.066 210.005

  -0.972  17.727  -7.557 -28.397  31.421 -21.285  24.722  29.657  16.709   8.899

  28.052 -16.409  -5.142  27.542  22.361   6.084  28.816  26.299  -3.005  22.911

   7.452  18.829  22.189   9.627 -17.911 -13.711   3.646   2.562  -7.948   2.402

  -0.756  -9.254   3.866  -2.433  -7.382   1.925  -1.631  -8.178   0.710  -2.003

  -1.191   1.038  -0.841  -0.659   1.127   0.818   0.320   0.602   0.729  -0.992

  -0.677  -0.089  -0.019  -0.381  -0.065  -0.675  -0.267   0.503   0.202  -3.281

  -0.199  -3.838   3.469  -1.998 -23.306  26.898  -0.230   2.510  15.535   0.486

  -2.119   2.449  -1.150  -1.430   3.818  -0.130  -1.506   2.376  -0.598  -0.750

   2.023   0.830   2.879  14.695  -0.031  -0.578   1.561   0.645   2.654  15.099

   0.225  -1.957   2.836  -0.538  -0.651   0.479  -0.856  -0.578   0.381   0.912

   2.574  15.368  -0.160   3.018  14.324   0.170  -0.555   0.751  -0.791  -1.224

   1.235   0.548  -0.819   0.447  -0.736  -0.865   1.034   0.880   2.931  14.370

  -0.169
       HoF         ACTUAL,  PREDICTED ENERGY CHANGE, RATIO
  -176.3275342    46.1518966         -12.0846085   -3.8190643
 UNACCEPTABLE RATIO, REJECTING STEP, REDUCING DMAX TO 0.0250
  MIN SEARCH, CORRECT HESSIAN, TRYING PURE NR STEP
 LAMBDA THAT MINIMIZES ALONG ALL MODES =        0.000000000
 PURE NR-STEP HAS LENGTH   0.85301
 LAMBDA THAT MINIMIZES ALONG ALL MODES =     -129.830942731
 P-RFO-STEP   HAS LENGTH   0.55205
 LAMBDA THAT MINIMIZES ALONG ALL MODES =    -9664.785962996
 QA/TRIM-STEP HAS LENGTH   0.02500

  HEAT OF FORMATION       -216.23693906544941    
 PARAMETERS        0.001   0.001   0.001   7.071   0.001  -0.000   3.215   1.179
   0.000   4.859   1.121   4.392   4.818   1.693   1.339   2.813   0.534   3.358

   2.757   0.525   2.282   1.434   0.309   3.325   1.569   1.874   1.736   1.563

   1.841   5.921   1.556   1.997   3.307   1.529   2.019   3.492   1.524   1.952

   1.533   1.553   1.855   3.852   1.552   1.964   1.114   1.413   2.128   4.677

   1.411   2.122   4.636   1.398   2.072   1.556   1.398   2.070   1.466   1.387

   0.660   4.639   1.385   1.330   0.957   1.381   0.490   0.274   1.388   0.544

   5.439   1.383   1.046   6.249   1.381   1.057   6.263   1.446   2.518   5.817

   1.443   2.727   4.886   1.444   1.858   2.424   1.444   2.685   5.111   1.441

   1.940   1.910   1.440   1.721   4.213   1.096   1.866   5.383   1.094   1.914

   1.302   1.095   1.892   5.600   1.092   1.941   5.630   1.094   1.910   3.613

   1.093   1.929   1.125   1.092   1.950   3.227   1.092   1.946   5.337   1.093

   1.924   3.315   1.093   1.946   5.393   1.093   1.944   1.229   0.975   2.187

   3.716   1.088   2.093   0.007   1.086   2.072   0.038   1.093   1.897   2.300

   1.093   1.913   0.213   1.093   1.923   4.391   1.094   1.920   3.296   1.094

   1.907   1.192   1.093   1.898   5.386   1.094   1.907   4.773   1.093   1.898

   2.686   1.093   1.922   0.594   1.094   1.913   1.296   1.094   1.911   5.466

   1.093   1.895   3.381   1.093   1.900   1.989   1.094   1.906   6.182   1.094

   1.910   4.081   1.094   1.906   2.114   1.094   1.908   0.014   1.093   1.900

   4.205
 GRADIENT          0.000   0.000   0.000 -40.952   0.000   0.000 -57.348-347.902
   0.000  20.494  16.833  -3.824  38.717-174.945-228.064  -3.146   4.982  11.294

 -11.383 -14.160  -9.085  20.411-369.090 326.805 -75.546 373.712-560.408  -1.018

  10.545 202.842  45.636-329.258-123.051 -34.437  22.583-255.303  88.815  44.221

-402.946  15.032  -5.711   0.073  10.305   6.416  -6.607  45.154-124.202   2.291

  73.421-107.738  -1.995  -4.172  23.064  -0.488  30.893 155.801  -1.754  17.006

  -4.500 -15.514  33.086 -40.012   1.993  13.520  23.468 -13.864  58.879  74.547

   0.890  20.045  -9.456 -30.492  30.049  -4.625  28.162  30.927  17.282   9.233

  28.961 -17.179  -5.963  29.082  22.744   6.157  30.876  27.015  -3.036  24.223

   7.901  19.643  23.243  10.261 -18.558 -15.043   4.498   2.275  -8.254   2.240

  -1.571 -10.156   4.200  -2.771  -7.770   1.730  -2.524  -9.210   0.885  -2.533

  -1.461   0.975  -0.831  -0.946   1.188   0.795   0.032   0.473   0.703  -1.330

  -0.732  -0.129  -0.386  -0.554  -0.027  -0.966  -0.338   0.457  -0.511  -4.202

  -0.214  -2.867   1.312  -1.333 -10.482  11.309   0.097   2.514  15.868   0.475

  -2.311   2.504  -1.110  -1.722   3.955  -0.162  -1.864   2.544  -0.562  -1.016

   1.963   0.804   2.838  15.310  -0.017  -0.767   1.716   0.628   2.666  15.343

   0.225  -2.139   2.983  -0.521  -0.887   0.773  -0.826  -0.882   0.648   0.835

   2.563  15.929  -0.154   3.045  14.690   0.172  -0.848   0.876  -0.775  -1.499

   1.387   0.524  -1.035   0.539  -0.712  -1.063   1.068   0.883   2.910  14.678

  -0.185
       HoF         ACTUAL,  PREDICTED ENERGY CHANGE, RATIO
  -216.2369391     6.2424918          -6.1785401   -1.0103506
 UNACCEPTABLE RATIO, REJECTING STEP, REDUCING DMAX TO 0.0125
  MIN SEARCH, CORRECT HESSIAN, TRYING PURE NR STEP
 LAMBDA THAT MINIMIZES ALONG ALL MODES =        0.000000000
 PURE NR-STEP HAS LENGTH   0.85301
 LAMBDA THAT MINIMIZES ALONG ALL MODES =     -129.830942731
 P-RFO-STEP   HAS LENGTH   0.55205
 LAMBDA THAT MINIMIZES ALONG ALL MODES =   -19769.810341623
 QA/TRIM-STEP HAS LENGTH   0.01250

  HEAT OF FORMATION       -222.72933996217034    
 PARAMETERS        0.000   0.001   0.000   7.072   0.000  -0.000   3.215   1.180
   0.000   4.859   1.121   4.392   4.818   1.694   1.338   2.812   0.534   3.359

   2.756   0.523   2.281   1.433   0.311   3.324   1.570   1.869   1.740   1.563

   1.840   5.918   1.555   2.002   3.309   1.530   2.019   3.495   1.524   1.952

   1.536   1.553   1.854   3.852   1.552   1.964   1.114   1.412   2.129   4.676

   1.409   2.123   4.636   1.397   2.072   1.555   1.397   2.070   1.466   1.387

   0.660   4.638   1.385   1.328   0.958   1.382   0.491   0.274   1.389   0.542

   5.439   1.383   1.045   6.247   1.381   1.057   6.264   1.447   2.519   5.817

   1.444   2.726   4.885   1.445   1.859   2.424   1.445   2.686   5.110   1.442

   1.940   1.911   1.441   1.721   4.212   1.095   1.867   5.383   1.093   1.914

   1.302   1.095   1.892   5.600   1.092   1.941   5.630   1.094   1.910   3.613

   1.093   1.929   1.125   1.092   1.950   3.227   1.092   1.946   5.337   1.093

   1.924   3.315   1.092   1.946   5.393   1.092   1.944   1.229   0.975   2.187

   3.716   1.087   2.093   0.006   1.086   2.072   0.037   1.093   1.898   2.300

   1.093   1.913   0.213   1.092   1.923   4.391   1.093   1.920   3.295   1.093

   1.907   1.192   1.093   1.899   5.386   1.094   1.907   4.773   1.093   1.899

   2.686   1.093   1.922   0.594   1.094   1.913   1.296   1.094   1.911   5.466

   1.093   1.896   3.381   1.093   1.901   1.988   1.094   1.906   6.182   1.094

   1.910   4.081   1.094   1.906   2.114   1.094   1.908   0.014   1.093   1.901

   4.205
 GRADIENT          0.000   0.000   0.000  -9.719   0.000   0.000 -19.779-145.143
   0.000  17.849  13.607  -1.397  25.273 -70.635-105.000  -4.331   2.714  11.826

  -7.827 -18.304  -9.487   6.650-152.840 146.662  -6.293 113.397-210.015  10.422

   4.483  53.554  27.694 -96.901 -23.528   0.908  10.129 -75.583  56.150  21.161

-134.615  14.731  -6.109   0.186  10.027   6.614  -6.734  11.843 -34.519   3.678

  26.534 -23.513  -1.110  -3.344  17.964  -1.566  11.593  75.536   0.815  17.888

  -8.281 -14.721  24.602 -34.890   9.492  16.343  20.593 -13.544  41.723   8.265

   2.208  21.289 -11.025 -31.474  30.891   1.420  29.723  31.587  17.575   9.392

  29.425 -17.573  -6.358  29.892  22.930   6.197  31.872  27.343  -3.055  24.900

   8.124  20.044  23.809  10.533 -18.872 -15.747   4.935   2.128  -8.447   2.163

  -1.959 -10.637   4.361  -2.929  -8.006   1.632  -2.944  -9.742   0.967  -2.796

  -1.607   0.945  -0.826  -1.103   1.215   0.782  -0.124   0.409   0.690  -1.510

  -0.768  -0.151  -0.587  -0.638  -0.011  -1.124  -0.371   0.436  -0.893  -4.680

  -0.223  -2.400   0.261  -1.033  -4.899   4.463   0.186   2.513  16.038   0.471

  -2.419   2.539  -1.090  -1.880   4.034  -0.177  -2.055   2.634  -0.542  -1.156

   1.947   0.791   2.812  15.614  -0.009  -0.871   1.798   0.620   2.670  15.469

   0.225  -2.239   3.063  -0.513  -1.005   0.906  -0.812  -1.037   0.776   0.801

   2.557  16.202  -0.151   3.060  14.872   0.173  -1.004   0.940  -0.768  -1.646

   1.463   0.511  -1.152   0.584  -0.698  -1.164   1.094   0.885   2.897  14.824

  -0.189
       HoF         ACTUAL,  PREDICTED ENERGY CHANGE, RATIO
  -222.7293400    -0.2499091          -3.1240168    0.0799961
     STEPSIZE USED IS  0.01250
 CALCULATED STEP
     0.000452  0.000541  0.000356 -0.000487  0.000249 -0.000177 -0.000157 -0.001553
     0.000170  0.000096 -0.000325 -0.000015  0.000206 -0.000337  0.000286  0.000965
     0.000244 -0.000450  0.000830  0.001539  0.000668  0.000918 -0.002011  0.001133
    -0.001785  0.005148 -0.004086 -0.000169  0.000410  0.003004  0.000122 -0.004257
    -0.001519 -0.000629  0.000030 -0.002327 -0.000395 -0.000020 -0.003533  0.000004
     0.000580  0.000267  0.000062  0.000035  0.000632  0.001273 -0.001228  0.000186
     0.001329 -0.001361  0.000461  0.000661 -0.000294  0.000436  0.000529  0.000185
     0.000155 -0.000212  0.000839  0.000939 -0.000242  0.001716 -0.000731 -0.000497
    -0.000494  0.000902 -0.000738  0.002704  0.000056 -0.000265  0.000758  0.001884
    -0.000752 -0.000270 -0.001296 -0.000708 -0.000701 -0.000161 -0.000644  0.001105
     0.000665 -0.000870 -0.000822 -0.000023 -0.000780 -0.001151  0.000477 -0.000653
    -0.000072 -0.000729 -0.000457 -0.000286  0.001244  0.001024 -0.000204 -0.000008
     0.000574  0.000006  0.000208  0.000771 -0.000164  0.000245  0.000634 -0.000018
     0.000259  0.000694  0.000032  0.000244  0.000238  0.000066  0.000133  0.000253
     0.000025  0.000053  0.000244  0.000045  0.000058  0.000275  0.000125  0.000100
     0.000270  0.000098  0.000091  0.000218  0.000130  0.000071  0.000265  0.000338
     0.000108  0.000230  0.000163  0.000130  0.000134  0.000209  0.000080  0.000053
    -0.000702  0.000068  0.000259 -0.000005  0.000145  0.000311 -0.000129  0.000101
     0.000301 -0.000048  0.000118  0.000217  0.000017  0.000052  0.000096 -0.000724
     0.000091  0.000267 -0.000024  0.000061  0.000053 -0.000676  0.000080  0.000257
    -0.000037  0.000117  0.000211  0.000056  0.000132  0.000290  0.000015  0.000053
     0.000072 -0.000727  0.000099  0.000021 -0.000642  0.000082  0.000302  0.000002
     0.000129  0.000294  0.000000  0.000066  0.000233  0.000068  0.000126  0.000194
     0.000070  0.000047  0.000070 -0.000663  0.000101
     NEW TRUST RADIUS =  0.01250

     HESSIAN IS BEING UPDATED USING THE BFGS UPDATE

*REMARK   3 HET = Not identified; C 24 H 32 O 7      =    63 atoms res:    1
 PM7 CHARGE=0 EF NOXYZ PRNT=2 PDBOUT COMPFG GRAPHF
 3001664

  O(HETATM    1  O1  HET A   1)   0.00045247 +1    0.0005410 +1    0.0003560 +1
  O(HETATM    2  O2  HET A   1)   7.07174052 +1    0.0142625 +1   -0.0101138 +1     1     0     0
  O(HETATM    3  O3  HET A   1)   3.21522176 +1   67.6161061 +1    0.0097220 +1     2     1     0
  O(HETATM    4  O4  HET A   1)   4.85908776 +1   64.2232279 +1 -108.3351952 +1     2     1     3
  O(HETATM    5  O5  HET A   1)   4.81778460 +1   97.0394453 +1   76.6757021 +1     3     2     1
  O(HETATM    6  O6  HET A   1)   2.81233082 +1   30.5708004 +1 -167.5529938 +1     4     2     1
  O(HETATM    7  O7  HET A   1)   2.75586395 +1   29.9789785 +1  130.7090603 +1     5     3     2
  C(HETATM    8  C1  HET A   1)   1.43296343 +1   17.7909075 +1 -169.5633001 +1     1     2     3
  C(HETATM    9  C2  HET A   1)   1.57024894 +1  107.0842969 +1   99.7097677 +1     8     1     2
  C(HETATM   10  C3  HET A   1)   1.56283370 +1  105.4306543 +1  -20.9459923 +1     8     1     2
  C(HETATM   11  C4  HET A   1)   1.55546511 +1  114.6866573 +1 -170.4205962 +1     9     8     1
  C(HETATM   12  C5  HET A   1)   1.52980190 +1  115.6548576 +1 -159.7684967 +1    10     8     1
  C(HETATM   13  C6  HET A   1)   1.52395372 +1  111.8234454 +1   88.0160735 +1    11     9     8
  C(HETATM   14  C7  HET A   1)   1.55308856 +1  106.2462452 +1 -139.2944362 +1     8     1     2
  C(HETATM   15  C8  HET A   1)   1.55150976 +1  112.5298115 +1   63.8068842 +1     9     8     1
  C(HETATM   16  C9  HET A   1)   1.41171878 +1  121.9860800 +1  -92.0658469 +1    12    10     8
  C(HETATM   17  C10 HET A   1)   1.40935349 +1  121.6352329 +1  -94.3862324 +1    13    11     9
  C(HETATM   18  C11 HET A   1)   1.39734418 +1  118.7404256 +1   89.1229899 +1    12    10     8
  C(HETATM   19  C12 HET A   1)   1.39702440 +1  118.5962524 +1   83.9707501 +1    13    11     9
  C(HETATM   20  C13 HET A   1)   1.38711185 +1   37.7912402 +1  -94.2804107 +1     2     1     3
  C(HETATM   21  C14 HET A   1)   1.38539402 +1   76.1026801 +1   54.8770016 +1     3     2     1
  C(HETATM   22  C15 HET A   1)   1.38165103 +1   28.1300700 +1   15.6741920 +1     4     2     1
  C(HETATM   23  C16 HET A   1)   1.38876742 +1   31.0407260 +1  -48.3832243 +1     5     3     2
  C(HETATM   24  C17 HET A   1)   1.38279694 +1   59.8634699 +1   -2.0535230 +1     6     4     2
  C(HETATM   25  C18 HET A   1)   1.38142578 +1   60.5536310 +1   -1.0762921 +1     7     5     3
  C(HETATM   26  C19 HET A   1)   1.44674231 +1  144.3238075 +1  -26.7072214 +1     2     1     3
  C(HETATM   27  C20 HET A   1)   1.44404585 +1  156.2086419 +1  -80.0938378 +1     3     2     1
  C(HETATM   28  C21 HET A   1)   1.44497582 +1  106.5258664 +1  138.8835663 +1     4     2     1
  C(HETATM   29  C22 HET A   1)   1.44469638 +1  153.8986129 +1  -67.1938424 +1     5     3     2
  C(HETATM   30  C23 HET A   1)   1.44170666 +1  111.1686371 +1  109.4789092 +1     6     4     2
  C(HETATM   31  C24 HET A   1)   1.44086673 +1   98.6168855 +1 -118.6724011 +1     7     5     3
  H(HETATM   32  H2  HET A   1)   1.09511359 +1  106.9432813 +1  -51.5943850 +1     9     8     1
  H(HETATM   33 1H3  HET A   1)   1.09302083 +1  109.6392831 +1   74.6085817 +1    10     8     1
  H(HETATM   34 2H3  HET A   1)   1.09457673 +1  108.4191461 +1  -39.1469459 +1    10     8     1
  H(HETATM   35 1H4  HET A   1)   1.09176486 +1  111.1994657 +1  -37.4216196 +1    11     9     8
  H(HETATM   36 2H4  HET A   1)   1.09383096 +1  109.4200728 +1 -153.0146554 +1    11     9     8
  H(HETATM   37 1H7  HET A   1)   1.09265625 +1  110.5432509 +1   64.4513210 +1    14     8     1
  H(HETATM   38 2H7  HET A   1)   1.09199001 +1  111.7090654 +1 -175.0890378 +1    14     8     1
  H(HETATM   39 3H7  HET A   1)   1.09216506 +1  111.4755998 +1  -54.2385459 +1    14     8     1
  H(HETATM   40 1H8  HET A   1)   1.09287795 +1  110.2271733 +1 -170.0749876 +1    15     9     8
  H(HETATM   41 2H8  HET A   1)   1.09225461 +1  111.4808022 +1  -51.0276697 +1    15     9     8
  H(HETATM   42 3H8  HET A   1)   1.09243165 +1  111.3699775 +1   70.4084598 +1    15     9     8
  H(HETATM   43  H1  HET A   1)   0.97470384 +1  125.3002592 +1 -147.0780407 +1     1     2     3
  H(HETATM   44  H11 HET A   1)   1.08742788 +1  119.9132932 +1    0.3700966 +1    18    12    10
  H(HETATM   45  H12 HET A   1)   1.08617230 +1  118.6999278 +1    2.1443550 +1    19    13    11
  H(HETATM   46 1H19 HET A   1)   1.09257543 +1  108.7425629 +1  131.7916401 +1    26     2     1
  H(HETATM   47 2H19 HET A   1)   1.09293162 +1  109.6189159 +1   12.1801674 +1    26     2     1
  H(HETATM   48 3H19 HET A   1)   1.09248909 +1  110.1654763 +1 -108.4150511 +1    26     2     1
  H(HETATM   49 1H20 HET A   1)   1.09341112 +1  110.0007497 +1 -171.1849233 +1    27     3     2
  H(HETATM   50 2H20 HET A   1)   1.09341203 +1  109.2534278 +1   68.2777747 +1    27     3     2
  H(HETATM   51 3H20 HET A   1)   1.09287325 +1  108.7771457 +1  -51.3843286 +1    27     3     2
  H(HETATM   52 1H21 HET A   1)   1.09355082 +1  109.2416751 +1  -86.5181328 +1    28     4     2
  H(HETATM   53 2H21 HET A   1)   1.09286372 +1  108.7972822 +1  153.8763538 +1    28     4     2
  H(HETATM   54 3H21 HET A   1)   1.09310356 +1  110.1333556 +1   34.0287875 +1    28     4     2
  H(HETATM   55 1H22 HET A   1)   1.09351198 +1  109.6091774 +1   74.2352038 +1    29     5     3
  H(HETATM   56 2H22 HET A   1)   1.09376233 +1  109.4736870 +1  -46.8315623 +1    29     5     3
  H(HETATM   57 3H22 HET A   1)   1.09331923 +1  108.6369723 +1 -166.2873260 +1    29     5     3
  H(HETATM   58 1H23 HET A   1)   1.09285520 +1  108.8971677 +1  113.9297415 +1    30     6     4
  H(HETATM   59 2H23 HET A   1)   1.09384970 +1  109.2038546 +1   -5.8231296 +1    30     6     4
  H(HETATM   60 3H23 HET A   1)   1.09402195 +1  109.4365895 +1 -126.2019807 +1    30     6     4
  H(HETATM   61 1H24 HET A   1)   1.09390752 +1  109.1866247 +1  121.1060813 +1    31     7     5
  H(HETATM   62 2H24 HET A   1)   1.09382321 +1  109.3252114 +1    0.7917365 +1    31     7     5
  H(HETATM   63 3H24 HET A   1)   1.09274537 +1  108.9166376 +1 -119.0488798 +1    31     7     5

 XPARAM 
  1  1    0.0005  1  2    0.0005  1  3    0.0004  2  1    7.0717  2  2    0.0002
  2  3   -0.0002  3  1    3.2152  3  2    1.1801  3  3    0.0002  4  1    4.8591
  4  2    1.1209  4  3    4.3924  5  1    4.8178  5  2    1.6937  5  3    1.3382
  6  1    2.8123  6  2    0.5336  6  3    3.3588  7  1    2.7559  7  2    0.5232
  7  3    2.2813  8  1    1.4330  8  2    0.3105  8  3    3.3237  9  1    1.5702
  9  2    1.8690  9  3    1.7403 10  1    1.5628 10  2    1.8401 10  3    5.9176
 11  1    1.5555 11  2    2.0017 11  3    3.3088 12  1    1.5298 12  2    2.0186
 12  3    3.4947 13  1    1.5240 13  2    1.9517 13  3    1.5362 14  1    1.5531
 14  2    1.8543 14  3    3.8520 15  1    1.5515 15  2    1.9640 15  3    1.1136
 16  1    1.4117 16  2    2.1291 16  3    4.6763 17  1    1.4094 17  2    2.1229
 17  3    4.6358 18  1    1.3973 18  2    2.0724 18  3    1.5555 19  1    1.3970
 19  2    2.0699 19  3    1.4656 20  1    1.3871 20  2    0.6596 20  3    4.6377
 21  1    1.3854 21  2    1.3282 21  3    0.9578 22  1    1.3817 22  2    0.4910
 22  3    0.2736 23  1    1.3888 23  2    0.5418 23  3    5.4387 24  1    1.3828
 24  2    1.0448 24  3    6.2473 25  1    1.3814 25  2    1.0569 25  3    6.2644
 26  1    1.4467 26  2    2.5189 26  3    5.8171 27  1    1.4440 27  2    2.7264
 27  3    4.8853 28  1    1.4450 28  2    1.8592 28  3    2.4240 29  1    1.4447
 29  2    2.6860 29  3    5.1104 30  1    1.4417 30  2    1.9403 30  3    1.9108
 31  1    1.4409 31  2    1.7212 31  3    4.2120 32  1    1.0951 32  2    1.8665
 32  3    5.3827 33  1    1.0930 33  2    1.9136 33  3    1.3022 34  1    1.0946
 34  2    1.8923 34  3    5.5999 35  1    1.0918 35  2    1.9408 35  3    5.6301
 36  1    1.0938 36  2    1.9097 36  3    3.6126 37  1    1.0927 37  2    1.9293
 37  3    1.1249 38  1    1.0920 38  2    1.9497 38  3    3.2273 39  1    1.0922
 39  2    1.9456 39  3    5.3365 40  1    1.0929 40  2    1.9238 40  3    3.3148
 41  1    1.0923 41  2    1.9457 41  3    5.3926 42  1    1.0924 42  2    1.9438
 42  3    1.2289 43  1    0.9747 43  2    2.1869 43  3    3.7162 44  1    1.0874
 44  2    2.0929 44  3    0.0065 45  1    1.0862 45  2    2.0717 45  3    0.0374
 46  1    1.0926 46  2    1.8979 46  3    2.3002 47  1    1.0929 47  2    1.9132
 47  3    0.2126 48  1    1.0925 48  2    1.9228 48  3    4.3910 49  1    1.0934
 49  2    1.9199 49  3    3.2954 50  1    1.0934 50  2    1.9068 50  3    1.1917
 51  1    1.0929 51  2    1.8985 51  3    5.3864 52  1    1.0936 52  2    1.9066
 52  3    4.7732 53  1    1.0929 53  2    1.8989 53  3    2.6856 54  1    1.0931
 54  2    1.9222 54  3    0.5939 55  1    1.0935 55  2    1.9130 55  3    1.2956
 56  1    1.0938 56  2    1.9107 56  3    5.4658 57  1    1.0933 57  2    1.8961
 57  3    3.3809 58  1    1.0929 58  2    1.9006 58  3    1.9884 59  1    1.0938
 59  2    1.9060 59  3    6.1816 60  1    1.0940 60  2    1.9100 60  3    4.0805
 61  1    1.0939 61  2    1.9057 61  3    2.1137 62  1    1.0938 62  2    1.9081
 62  3    0.0138 63  1    1.0927 63  2    1.9010 63  3    4.2054
 grad
       0.00001    0.00000    0.00001   -9.71921    0.00000    0.00000  -19.77865 -145.14325
       0.00000   17.84891   13.60698   -1.39668   25.27318  -70.63535 -105.00031   -4.33073
       2.71361   11.82626   -7.82676  -18.30355   -9.48740    6.65006 -152.83957  146.66178
      -6.29269  113.39702 -210.01488   10.42191    4.48260   53.55440   27.69439  -96.90148
     -23.52827    0.90790   10.12890  -75.58254   56.14961   21.16066 -134.61521   14.73115
      -6.10916    0.18554   10.02718    6.61402   -6.73407   11.84332  -34.51884    3.67751
      26.53425  -23.51286   -1.10958   -3.34358   17.96351   -1.56589   11.59273   75.53596
       0.81495   17.88829   -8.28107  -14.72068   24.60178  -34.89018    9.49236   16.34276
      20.59307  -13.54353   41.72322    8.26527    2.20785   21.28946  -11.02472  -31.47422
      30.89135    1.42047   29.72345   31.58695   17.57459    9.39222   29.42451  -17.57293
      -6.35819   29.89234   22.92960    6.19683   31.87209   27.34279   -3.05519   24.89979
       8.12395   20.04408   23.80859   10.53292  -18.87245  -15.74746    4.93472    2.12768
      -8.44730    2.16324   -1.95941  -10.63678    4.36121   -2.92903   -8.00556    1.63157
      -2.94398   -9.74189    0.96671   -2.79588   -1.60731    0.94548   -0.82640   -1.10287
       1.21507    0.78178   -0.12382    0.40897    0.69015   -1.50958   -0.76759   -0.15134
      -0.58654   -0.63776   -0.01123   -1.12420   -0.37130    0.43576   -0.89255   -4.67999
      -0.22272   -2.39975    0.26117   -1.03279   -4.89938    4.46350    0.18596    2.51295
      16.03778    0.47093   -2.41878    2.53898   -1.09033   -1.87979    4.03433   -0.17716
      -2.05547    2.63396   -0.54214   -1.15559    1.94658    0.79136    2.81248   15.61400
      -0.00888   -0.87126    1.79805    0.61985    2.67038   15.46856    0.22543   -2.23945
       3.06329   -0.51305   -1.00500    0.90624   -0.81240   -1.03684    0.77633    0.80078
       2.55715   16.20205   -0.15137    3.05975   14.87229    0.17301   -1.00407    0.94036
      -0.76764   -1.64572    1.46250    0.51125   -1.15227    0.58412   -0.69845   -1.16412
       1.09366    0.88455    2.89734   14.82386   -0.18943
 CYCLE:     2 TIME:   0.289 TIME LEFT:  2.00D  GRAD.:   458.984 HEAT: -222.7293

          HESSIAN HAS  0 NEGATIVE EIGENVALUE(S)
  MIN SEARCH, CORRECT HESSIAN, TRYING PURE NR STEP
 LAMBDA THAT MINIMIZES ALONG ALL MODES =        0.000000000
 PURE NR-STEP HAS LENGTH   0.84102
 LAMBDA THAT MINIMIZES ALONG ALL MODES =      -84.383120924
 P-RFO-STEP   HAS LENGTH   0.55523
 LAMBDA THAT MINIMIZES ALONG ALL MODES =   -13481.367095625
 QA/TRIM-STEP HAS LENGTH   0.01250

  HEAT OF FORMATION       -223.82498796327855    
 PARAMETERS        0.001   0.001   0.001   7.072  -0.001  -0.001   3.216   1.183
  -0.000   4.859   1.120   4.392   4.817   1.695   1.341   2.814   0.533   3.358

   2.757   0.525   2.282   1.434   0.314   3.320   1.569   1.869   1.744   1.563

   1.840   5.918   1.555   2.001   3.308   1.530   2.018   3.495   1.522   1.951

   1.537   1.553   1.855   3.852   1.552   1.963   1.114   1.413   2.129   4.676

   1.410   2.123   4.636   1.398   2.071   1.556   1.397   2.067   1.465   1.387

   0.661   4.639   1.385   1.330   0.957   1.381   0.489   0.275   1.387   0.544

   5.439   1.383   1.046   6.250   1.381   1.057   6.262   1.446   2.518   5.816

   1.443   2.728   4.886   1.444   1.858   2.423   1.444   2.684   5.110   1.441

   1.940   1.909   1.440   1.721   4.213   1.097   1.866   5.383   1.094   1.913

   1.302   1.096   1.892   5.600   1.093   1.941   5.630   1.095   1.910   3.613

   1.093   1.929   1.125   1.092   1.950   3.227   1.093   1.946   5.336   1.093

   1.924   3.315   1.093   1.946   5.393   1.093   1.944   1.229   0.975   2.187

   3.716   1.088   2.093   0.007   1.086   2.072   0.037   1.093   1.897   2.300

   1.093   1.913   0.213   1.093   1.923   4.391   1.094   1.920   3.295   1.094

   1.907   1.192   1.093   1.897   5.386   1.094   1.907   4.773   1.093   1.898

   2.686   1.093   1.922   0.594   1.094   1.913   1.296   1.094   1.911   5.466

   1.093   1.895   3.381   1.093   1.900   1.988   1.094   1.906   6.182   1.094

   1.910   4.080   1.094   1.906   2.114   1.094   1.908   0.014   1.093   1.900

   4.205
 GRADIENT          0.000   0.000   0.000  28.393   0.000   0.000  53.442 193.080
   0.000  12.462  -9.901   1.658  28.621 114.036 104.279  -1.193  -5.642  11.489

   8.329  26.320  -8.768   1.732 242.258 -94.242 -12.539  72.924  44.030  14.158

  24.406  36.450  -4.087 -57.239-150.782  14.005   3.294 -57.340 -52.008  34.062

 -66.826  14.700  -5.666  -0.381  10.087   6.280  -6.516  13.792 -21.035   6.810

   9.390 -53.402  -6.580   0.423  21.116  -1.635 -17.691 -19.649   6.988  22.198

  -7.367 -12.469   6.832 -12.965  25.790  16.668  24.380 -13.051   5.306 -52.766

   1.020  23.587  -3.226 -28.958  12.910  12.348  26.221  30.923  17.235   9.283

  28.421 -17.014  -6.247  28.701  22.461   5.870  31.053  27.242  -3.135  23.935

   7.859  19.533  22.941  10.301 -18.537 -14.808   4.740   2.117  -7.883   2.153

  -2.021  -9.855   4.339  -2.899  -7.425   1.606  -2.926  -9.227   1.003  -2.985

  -1.392   0.915  -0.820  -0.848   1.216   0.796   0.153   0.380   0.638  -1.238

  -0.743  -0.145  -0.318  -0.651   0.006  -0.933  -0.379   0.403  -0.719  -4.891

  -0.223  -2.159   0.227  -0.898   0.451  -1.020  -0.167   2.547  15.791   0.457

  -2.197   2.382  -1.091  -1.597   3.900  -0.159  -1.815   2.541  -0.574  -1.004

   1.784   0.824   2.883  15.404  -0.008  -0.646   1.685   0.631   2.675  15.198

   0.223  -2.076   2.881  -0.533  -0.844   0.931  -0.706  -0.751   0.810   0.689

   2.548  15.884  -0.152   3.040  14.626   0.173  -0.737   0.855  -0.771  -1.411

   1.356   0.522  -0.978   0.491  -0.707  -1.022   0.974   0.889   2.944  14.617

  -0.182
       HoF         ACTUAL,  PREDICTED ENERGY CHANGE, RATIO
  -223.8249880    -1.0956480          -3.0391653    0.3605095
     STEPSIZE USED IS  0.01250
 CALCULATED STEP
     0.000251  0.000156  0.000317 -0.000211 -0.001273 -0.000991  0.000564  0.002612
    -0.000383  0.000101 -0.001254 -0.000683 -0.000306  0.001084  0.002915  0.001285
    -0.000225 -0.001141  0.001156  0.001376  0.000473  0.000820  0.003221 -0.004095
    -0.000919  0.000215  0.003296  0.000297  0.000356  0.000306 -0.000248 -0.000425
    -0.000810 -0.000003 -0.000392  0.000260 -0.001745 -0.001000  0.001246  0.000095
     0.000614 -0.000137  0.000026 -0.000536  0.000373  0.001341  0.000179 -0.000333
     0.000924 -0.000289  0.000047  0.000991 -0.001099  0.000049  0.000408 -0.002581
    -0.000255 -0.000268  0.001003  0.001047 -0.000782  0.002174 -0.001172 -0.000920
    -0.001482  0.000998 -0.001375  0.002064 -0.000211 -0.000199  0.001201  0.002320
    -0.000892 -0.000031 -0.002266 -0.000717 -0.000960 -0.000849 -0.000663  0.001537
     0.000315 -0.001235 -0.001599 -0.000559 -0.000833 -0.001717  0.000059 -0.000943
    -0.000568 -0.001593 -0.000546 -0.000570  0.001306  0.001531 -0.000272 -0.000163
     0.000818 -0.000141  0.000145  0.001173 -0.000215  0.000207  0.000982 -0.000007
     0.000217  0.001024 -0.000009  0.000201  0.000327 -0.000059  0.000046  0.000386
    -0.000034 -0.000072  0.000410  0.000074 -0.000065  0.000418  0.000113 -0.000003
     0.000447  0.000152 -0.000015  0.000298  0.000039 -0.000046  0.000413  0.000429
     0.000002  0.000318  0.000007  0.000046  0.000318 -0.000090 -0.000034  0.000081
    -0.001131 -0.000048  0.000341 -0.000196  0.000065  0.000490 -0.000214 -0.000001
     0.000455 -0.000138  0.000025  0.000296 -0.000129 -0.000072  0.000197 -0.001038
    -0.000013  0.000434 -0.000045 -0.000059  0.000087 -0.001080 -0.000030  0.000345
    -0.000228  0.000023  0.000290 -0.000060  0.000045  0.000478  0.000042 -0.000072
     0.000127 -0.001123 -0.000003  0.000028 -0.001055 -0.000027  0.000508  0.000049
     0.000042  0.000460 -0.000036 -0.000051  0.000336 -0.000014  0.000037  0.000243
    -0.000096 -0.000079  0.000139 -0.001001  0.000000
     NEW TRUST RADIUS =  0.01250
*REMARK   3 HET = Not identified; C 24 H 32 O 7      =    63 atoms res:    1
 PM7 CHARGE=0 EF NOXYZ PRNT=2 PDBOUT COMPFG GRAPHF
 3001664

  O(HETATM    1  O1  HET A   1)   0.00070332 +1    0.0006972 +1    0.0006733 +1
  O(HETATM    2  O2  HET A   1)   7.07152903 +1   -0.0586485 +1   -0.0668895 +1     1     0     0
  O(HETATM    3  O3  HET A   1)   3.21578531 +1   67.7657842 +1   -0.0122453 +1     2     1     0
  O(HETATM    4  O4  HET A   1)   4.85918916 +1   64.1513534 +1 -108.3743228 +1     2     1     3
  O(HETATM    5  O5  HET A   1)   4.81747825 +1   97.1015693 +1   76.8426974 +1     3     2     1
  O(HETATM    6  O6  HET A   1)   2.81361532 +1   30.5578830 +1 -167.6183553 +1     4     2     1
  O(HETATM    7  O7  HET A   1)   2.75701959 +1   30.0578391 +1  130.7361490 +1     5     3     2
  C(HETATM    8  C1  HET A   1)   1.43378384 +1   17.9754446 +1 -169.7979115 +1     1     2     3
  C(HETATM    9  C2  HET A   1)   1.56933005 +1  107.0966189 +1   99.8986324 +1     8     1     2
  C(HETATM   10  C3  HET A   1)   1.56313034 +1  105.4510489 +1  -20.9284540 +1     8     1     2
  C(HETATM   11  C4  HET A   1)   1.55521689 +1  114.6623130 +1 -170.4669917 +1     9     8     1
  C(HETATM   12  C5  HET A   1)   1.52979932 +1  115.6323960 +1 -159.7535839 +1    10     8     1
  C(HETATM   13  C6  HET A   1)   1.52220848 +1  111.7661277 +1   88.0874709 +1    11     9     8
  C(HETATM   14  C7  HET A   1)   1.55318315 +1  106.2813991 +1 -139.3022940 +1     8     1     2
  C(HETATM   15  C8  HET A   1)   1.55153537 +1  112.4991116 +1   63.8282696 +1     9     8     1
  C(HETATM   16  C9  HET A   1)   1.41305982 +1  121.9963382 +1  -92.0849392 +1    12    10     8
  C(HETATM   17  C10 HET A   1)   1.41027719 +1  121.6186978 +1  -94.3835238 +1    13    11     9
  C(HETATM   18  C11 HET A   1)   1.39833558 +1  118.6774847 +1   89.1258107 +1    12    10     8
  C(HETATM   19  C12 HET A   1)   1.39743275 +1  118.4483466 +1   83.9561319 +1    13    11     9
  C(HETATM   20  C13 HET A   1)   1.38684368 +1   37.8486877 +1  -94.2204017 +1     2     1     3
  C(HETATM   21  C14 HET A   1)   1.38461176 +1   76.2272383 +1   54.8098298 +1     3     2     1
  C(HETATM   22  C15 HET A   1)   1.38073116 +1   28.0451799 +1   15.7313696 +1     4     2     1
  C(HETATM   23  C16 HET A   1)   1.38739224 +1   31.1589837 +1  -48.3953079 +1     5     3     2
  C(HETATM   24  C17 HET A   1)   1.38259770 +1   59.9322878 +1   -1.9206014 +1     6     4     2
  C(HETATM   25  C18 HET A   1)   1.38053330 +1   60.5518609 +1   -1.2061316 +1     7     5     3
  C(HETATM   26  C19 HET A   1)   1.44602514 +1  144.2688020 +1  -26.7558502 +1     2     1     3
  C(HETATM   27  C20 HET A   1)   1.44338245 +1  156.2967127 +1  -80.0758014 +1     3     2     1
  C(HETATM   28  C21 HET A   1)   1.44374083 +1  106.4342680 +1  138.8515582 +1     4     2     1
  C(HETATM   29  C22 HET A   1)   1.44386340 +1  153.8002602 +1  -67.1904647 +1     5     3     2
  C(HETATM   30  C23 HET A   1)   1.44076331 +1  111.1360929 +1  109.3876094 +1     6     4     2
  C(HETATM   31  C24 HET A   1)   1.44032052 +1   98.5842271 +1 -118.5975573 +1     7     5     3
  H(HETATM   32  H2  HET A   1)   1.09664418 +1  106.9276684 +1  -51.6037474 +1     9     8     1
  H(HETATM   33 1H3  HET A   1)   1.09383887 +1  109.6312066 +1   74.6168756 +1    10     8     1
  H(HETATM   34 2H3  HET A   1)   1.09574931 +1  108.4068471 +1  -39.1350715 +1    10     8     1
  H(HETATM   35 1H4  HET A   1)   1.09274671 +1  111.1990652 +1  -37.4091640 +1    11     9     8
  H(HETATM   36 2H4  HET A   1)   1.09485521 +1  109.4195416 +1 -153.0031237 +1    11     9     8
  H(HETATM   37 1H7  HET A   1)   1.09298289 +1  110.5398903 +1   64.4539480 +1    14     8     1
  H(HETATM   38 2H7  HET A   1)   1.09237573 +1  111.7071012 +1 -175.0931531 +1    14     8     1
  H(HETATM   39 3H7  HET A   1)   1.09257495 +1  111.4798436 +1  -54.2422799 +1    14     8     1
  H(HETATM   40 1H8  HET A   1)   1.09329575 +1  110.2336616 +1 -170.0751330 +1    15     9     8
  H(HETATM   41 2H8  HET A   1)   1.09270140 +1  111.4895151 +1  -51.0285192 +1    15     9     8
  H(HETATM   42 3H8  HET A   1)   1.09273008 +1  111.3722164 +1   70.4058224 +1    15     9     8
  H(HETATM   43  H1  HET A   1)   0.97511674 +1  125.3248615 +1 -147.0779446 +1     1     2     3
  H(HETATM   44  H11 HET A   1)   1.08774614 +1  119.9136755 +1    0.3727122 +1    18    12    10
  H(HETATM   45  H12 HET A   1)   1.08649078 +1  118.6947458 +1    2.1423922 +1    19    13    11
  H(HETATM   46 1H19 HET A   1)   1.09265628 +1  108.6777390 +1  131.7888743 +1    26     2     1
  H(HETATM   47 2H19 HET A   1)   1.09327263 +1  109.6076854 +1   12.1838933 +1    26     2     1
  H(HETATM   48 3H19 HET A   1)   1.09297958 +1  110.1532070 +1 -108.4150939 +1    26     2     1
  H(HETATM   49 1H20 HET A   1)   1.09386656 +1  109.9928544 +1 -171.1835165 +1    27     3     2
  H(HETATM   50 2H20 HET A   1)   1.09370832 +1  109.2460320 +1   68.2736696 +1    27     3     2
  H(HETATM   51 3H20 HET A   1)   1.09307063 +1  108.7176502 +1  -51.3850979 +1    27     3     2
  H(HETATM   52 1H21 HET A   1)   1.09398437 +1  109.2391243 +1  -86.5215228 +1    28     4     2
  H(HETATM   53 2H21 HET A   1)   1.09295048 +1  108.7354027 +1  153.8746095 +1    28     4     2
  H(HETATM   54 3H21 HET A   1)   1.09344889 +1  110.1203108 +1   34.0300990 +1    28     4     2
  H(HETATM   55 1H22 HET A   1)   1.09380198 +1  109.6057378 +1   74.2377850 +1    29     5     3
  H(HETATM   56 2H22 HET A   1)   1.09424078 +1  109.4760857 +1  -46.8356688 +1    29     5     3
  H(HETATM   57 3H22 HET A   1)   1.09344580 +1  108.5726181 +1 -166.2874846 +1    29     5     3
  H(HETATM   58 1H23 HET A   1)   1.09288366 +1  108.8367448 +1  113.9282115 +1    30     6     4
  H(HETATM   59 2H23 HET A   1)   1.09435729 +1  109.2066461 +1   -5.8207243 +1    30     6     4
  H(HETATM   60 3H23 HET A   1)   1.09448150 +1  109.4345353 +1 -126.2049182 +1    30     6     4
  H(HETATM   61 1H24 HET A   1)   1.09424347 +1  109.1858156 +1  121.1081870 +1    31     7     5
  H(HETATM   62 2H24 HET A   1)   1.09406652 +1  109.3197363 +1    0.7872052 +1    31     7     5
  H(HETATM   63 3H24 HET A   1)   1.09288431 +1  108.8593091 +1 -119.0488580 +1    31     7     5

 XPARAM 
  1  1    0.0007  1  2    0.0007  1  3    0.0007  2  1    7.0715  2  2   -0.0010
  2  3   -0.0012  3  1    3.2158  3  2    1.1827  3  3   -0.0002  4  1    4.8592
  4  2    1.1197  4  3    4.3917  5  1    4.8175  5  2    1.6947  5  3    1.3412
  6  1    2.8136  6  2    0.5333  6  3    3.3577  7  1    2.7570  7  2    0.5246
  7  3    2.2818  8  1    1.4338  8  2    0.3137  8  3    3.3197  9  1    1.5693
  9  2    1.8692  9  3    1.7436 10  1    1.5631 10  2    1.8405 10  3    5.9179
 11  1    1.5552 11  2    2.0012 11  3    3.3080 12  1    1.5298 12  2    2.0182
 12  3    3.4950 13  1    1.5222 13  2    1.9507 13  3    1.5374 14  1    1.5532
 14  2    1.8550 14  3    3.8519 15  1    1.5515 15  2    1.9635 15  3    1.1140
 16  1    1.4131 16  2    2.1292 16  3    4.6760 17  1    1.4103 17  2    2.1226
 17  3    4.6359 18  1    1.3983 18  2    2.0713 18  3    1.5555 19  1    1.3974
 19  2    2.0673 19  3    1.4653 20  1    1.3868 20  2    0.6606 20  3    4.6387
 21  1    1.3846 21  2    1.3304 21  3    0.9566 22  1    1.3807 22  2    0.4895
 22  3    0.2746 23  1    1.3874 23  2    0.5438 23  3    5.4385 24  1    1.3826
 24  2    1.0460 24  3    6.2497 25  1    1.3805 25  2    1.0568 25  3    6.2621
 26  1    1.4460 26  2    2.5180 26  3    5.8162 27  1    1.4434 27  2    2.7279
 27  3    4.8856 28  1    1.4437 28  2    1.8576 28  3    2.4234 29  1    1.4439
 29  2    2.6843 29  3    5.1105 30  1    1.4408 30  2    1.9397 30  3    1.9092
 31  1    1.4403 31  2    1.7206 31  3    4.2133 32  1    1.0966 32  2    1.8662
 32  3    5.3825 33  1    1.0938 33  2    1.9134 33  3    1.3023 34  1    1.0957
 34  2    1.8921 34  3    5.6001 35  1    1.0927 35  2    1.9408 35  3    5.6303
 36  1    1.0949 36  2    1.9097 36  3    3.6128 37  1    1.0930 37  2    1.9293
 37  3    1.1249 38  1    1.0924 38  2    1.9497 38  3    3.2272 39  1    1.0926
 39  2    1.9457 39  3    5.3365 40  1    1.0933 40  2    1.9239 40  3    3.3148
 41  1    1.0927 41  2    1.9459 41  3    5.3926 42  1    1.0927 42  2    1.9438
 42  3    1.2288 43  1    0.9751 43  2    2.1873 43  3    3.7162 44  1    1.0877
 44  2    2.0929 44  3    0.0065 45  1    1.0865 45  2    2.0716 45  3    0.0374
 46  1    1.0927 46  2    1.8968 46  3    2.3001 47  1    1.0933 47  2    1.9130
 47  3    0.2126 48  1    1.0930 48  2    1.9225 48  3    4.3910 49  1    1.0939
 49  2    1.9197 49  3    3.2955 50  1    1.0937 50  2    1.9067 50  3    1.1916
 51  1    1.0931 51  2    1.8975 51  3    5.3863 52  1    1.0940 52  2    1.9066
 52  3    4.7731 53  1    1.0930 53  2    1.8978 53  3    2.6856 54  1    1.0934
 54  2    1.9220 54  3    0.5939 55  1    1.0938 55  2    1.9130 55  3    1.2957
 56  1    1.0942 56  2    1.9107 56  3    5.4657 57  1    1.0934 57  2    1.8949
 57  3    3.3809 58  1    1.0929 58  2    1.8996 58  3    1.9884 59  1    1.0944
 59  2    1.9060 59  3    6.1816 60  1    1.0945 60  2    1.9100 60  3    4.0805
 61  1    1.0942 61  2    1.9057 61  3    2.1137 62  1    1.0941 62  2    1.9080
 62  3    0.0137 63  1    1.0929 63  2    1.9000 63  3    4.2054
 grad
       0.00001    0.00000    0.00001   28.39296    0.00000    0.00000   53.44166  193.08032
       0.00000   12.46177   -9.90087    1.65814   28.62055  114.03595  104.27887   -1.19324
      -5.64223   11.48916    8.32898   26.32030   -8.76808    1.73155  242.25806  -94.24196
     -12.53920   72.92384   44.03043   14.15833   24.40589   36.44987   -4.08746  -57.23932
    -150.78160   14.00503    3.29448  -57.33955  -52.00802   34.06189  -66.82558   14.69953
      -5.66637   -0.38112   10.08746    6.27976   -6.51635   13.79234  -21.03496    6.81008
       9.39050  -53.40193   -6.57972    0.42270   21.11607   -1.63499  -17.69056  -19.64934
       6.98758   22.19824   -7.36670  -12.46917    6.83217  -12.96525   25.78969   16.66778
      24.38013  -13.05082    5.30555  -52.76576    1.01976   23.58661   -3.22593  -28.95769
      12.90971   12.34840   26.22145   30.92270   17.23457    9.28335   28.42091  -17.01425
      -6.24669   28.70091   22.46121    5.86961   31.05299   27.24206   -3.13459   23.93529
       7.85854   19.53305   22.94124   10.30092  -18.53698  -14.80761    4.74000    2.11706
      -7.88289    2.15343   -2.02074   -9.85534    4.33927   -2.89910   -7.42469    1.60577
      -2.92613   -9.22750    1.00282   -2.98473   -1.39241    0.91523   -0.81996   -0.84794
       1.21561    0.79581    0.15272    0.37977    0.63834   -1.23768   -0.74295   -0.14499
      -0.31789   -0.65079    0.00553   -0.93309   -0.37851    0.40262   -0.71891   -4.89086
      -0.22332   -2.15925    0.22696   -0.89788    0.45077   -1.01984   -0.16733    2.54675
      15.79134    0.45665   -2.19654    2.38196   -1.09086   -1.59706    3.90016   -0.15890
      -1.81474    2.54121   -0.57431   -1.00365    1.78413    0.82386    2.88337   15.40392
      -0.00777   -0.64608    1.68462    0.63077    2.67519   15.19847    0.22331   -2.07617
       2.88099   -0.53267   -0.84423    0.93111   -0.70587   -0.75124    0.81013    0.68866
       2.54831   15.88392   -0.15185    3.04047   14.62601    0.17257   -0.73706    0.85509
      -0.77081   -1.41093    1.35575    0.52222   -0.97798    0.49126   -0.70659   -1.02170
       0.97354    0.88905    2.94443   14.61709   -0.18163
 CYCLE:     3 TIME:   0.062 TIME LEFT:  2.00D  GRAD.:   452.458 HEAT: -223.8250

          HESSIAN HAS  0 NEGATIVE EIGENVALUE(S)
  MIN SEARCH, CORRECT HESSIAN, TRYING PURE NR STEP
 LAMBDA THAT MINIMIZES ALONG ALL MODES =        0.000000000
 PURE NR-STEP HAS LENGTH   1.16210
 LAMBDA THAT MINIMIZES ALONG ALL MODES =     -137.762433068
 P-RFO-STEP   HAS LENGTH   0.62273
 LAMBDA THAT MINIMIZES ALONG ALL MODES =   -20377.504443556
 QA/TRIM-STEP HAS LENGTH   0.01250

  HEAT OF FORMATION       -224.91644301348424    
 PARAMETERS        0.001   0.002   0.000   7.071  -0.000  -0.002   3.215   1.181
  -0.001   4.859   1.120   4.391   4.817   1.693   1.340   2.814   0.534   3.357

   2.758   0.525   2.282   1.434   0.310   3.319   1.570   1.866   1.746   1.563

   1.840   5.916   1.555   2.005   3.313   1.530   2.018   3.498   1.523   1.950

   1.542   1.553   1.856   3.852   1.552   1.964   1.114   1.413   2.131   4.676

   1.410   2.125   4.636   1.399   2.071   1.555   1.398   2.067   1.465   1.386

   0.661   4.639   1.384   1.332   0.955   1.380   0.489   0.275   1.387   0.545

   5.438   1.382   1.046   6.251   1.380   1.056   6.260   1.445   2.517   5.816

   1.443   2.729   4.886   1.443   1.857   2.423   1.443   2.683   5.110   1.440

   1.940   1.908   1.440   1.720   4.214   1.098   1.866   5.382   1.094   1.914

   1.302   1.096   1.892   5.600   1.093   1.941   5.630   1.095   1.910   3.613

   1.093   1.929   1.125   1.093   1.950   3.227   1.093   1.946   5.336   1.094

   1.924   3.315   1.093   1.946   5.392   1.093   1.944   1.229   0.975   2.188

   3.716   1.088   2.093   0.006   1.087   2.072   0.037   1.093   1.896   2.300

   1.094   1.913   0.213   1.093   1.922   4.391   1.094   1.920   3.295   1.094

   1.907   1.191   1.093   1.897   5.386   1.094   1.907   4.773   1.093   1.897

   2.686   1.094   1.922   0.594   1.094   1.913   1.296   1.094   1.911   5.466

   1.093   1.894   3.381   1.093   1.899   1.988   1.095   1.906   6.182   1.095

   1.910   4.080   1.094   1.906   2.114   1.094   1.908   0.014   1.093   1.899

   4.205
 GRADIENT          0.000   0.000   0.000  25.764   0.000   0.000   5.552  18.397
   0.000   9.704  28.772  -7.235   9.806  25.701  17.852   3.239   2.369  10.929

  13.649  12.079  -8.041 -14.329 -23.538 -36.185  50.693-111.235 104.730  19.058

 -21.344 -43.859  11.026 104.220  80.287  18.787  10.675  56.938  29.544  -6.797

 112.817  14.678  -5.631  -0.137  10.385   6.343  -6.695  -5.537  26.500   1.781

  -3.420  53.250   2.659  -2.272   3.272   0.047   1.642  -7.755   2.806  19.683

  -0.569 -15.888  18.420 -40.106  -0.736  12.264  13.691 -13.379  22.012 -30.687

   3.259  20.201   1.209 -28.640  18.215  23.694  25.674  30.094  17.221   9.136

  27.704 -16.818  -6.273  27.942  22.229   5.779  30.300  25.871  -2.959  23.213

   7.689  19.144  22.282  10.190 -17.957 -14.450   5.142   1.627  -7.414   2.071

  -2.235  -9.537   4.472  -3.123  -6.885   1.416  -3.354  -8.882   1.065  -3.211

  -1.248   0.904  -0.786  -0.708   1.261   0.765   0.260   0.354   0.625  -1.084

  -0.725  -0.167  -0.197  -0.646  -0.006  -0.796  -0.332   0.385  -0.318  -4.384

  -0.136  -0.868  -1.004  -1.315   1.252  -2.550   0.571   2.537  15.671   0.454

  -2.085   2.300  -1.104  -1.473   3.806  -0.143  -1.701   2.462  -0.579  -0.926

   1.657   0.826   2.886  15.309  -0.002  -0.559   1.623   0.642   2.660  15.064

   0.218  -1.940   2.797  -0.543  -0.772   0.845  -0.839  -0.709   0.701   0.806

   2.540  15.781  -0.157   3.008  14.475   0.172  -0.639   0.782  -0.785  -1.296

   1.293   0.533  -0.857   0.475  -0.722  -0.916   0.930   0.908   2.931  14.442

  -0.191
       HoF         ACTUAL,  PREDICTED ENERGY CHANGE, RATIO
  -224.9164430    -1.0914551          -3.6497540    0.2990489
     STEPSIZE USED IS  0.01250
 CALCULATED STEP
     0.000593  0.001028 -0.000617 -0.000050  0.000938 -0.000670 -0.000546 -0.001925
    -0.000438 -0.000049  0.000250 -0.000484 -0.000669 -0.001255 -0.001467  0.000763
     0.000539 -0.001116  0.000544  0.000208 -0.000104  0.000383 -0.003814 -0.000457
     0.000981 -0.003568  0.002323 -0.000025 -0.000781 -0.002318  0.000151  0.003814
     0.004627  0.000132  0.000072  0.002837  0.000945 -0.000748  0.004201 -0.000136
     0.000597 -0.000260  0.000064  0.000398  0.000072 -0.000016  0.001434 -0.000498
    -0.000170  0.002172 -0.000010  0.000612 -0.000317 -0.000155  0.000839 -0.000197
    -0.000459 -0.000423  0.000580  0.000209 -0.000137  0.001795 -0.001298 -0.000282
    -0.000279  0.000178 -0.000403  0.001504 -0.000536 -0.000509  0.000276  0.001080
    -0.000399 -0.000432 -0.001739 -0.000909 -0.000822 -0.000625 -0.000800  0.001004
     0.000171 -0.000855 -0.000585 -0.000561 -0.000924 -0.001203  0.000008 -0.000623
     0.000207 -0.001221 -0.000552 -0.000248  0.000627  0.000911 -0.000209 -0.000180
     0.000555  0.000094  0.000024  0.000667 -0.000195  0.000068  0.000545 -0.000062
     0.000071  0.000626  0.000053  0.000068  0.000232  0.000162 -0.000033  0.000212
     0.000059 -0.000111  0.000170  0.000010 -0.000105  0.000232  0.000151 -0.000067
     0.000193  0.000058 -0.000073  0.000209  0.000221 -0.000093  0.000207  0.000333
    -0.000051  0.000266  0.000243 -0.000020  0.000238  0.000200 -0.000066  0.000040
    -0.000619 -0.000098  0.000268  0.000126 -0.000021  0.000253 -0.000124 -0.000066
     0.000259 -0.000011 -0.000046  0.000212  0.000114 -0.000114  0.000033 -0.000730
    -0.000074  0.000206 -0.000032 -0.000105  0.000034 -0.000607 -0.000086  0.000262
     0.000085 -0.000048  0.000205  0.000155 -0.000038  0.000215 -0.000016 -0.000110
     0.000042 -0.000671 -0.000068  0.000014 -0.000549 -0.000083  0.000216 -0.000050
    -0.000037  0.000242  0.000014 -0.000100  0.000214  0.000139 -0.000040  0.000209
     0.000204 -0.000118  0.000027 -0.000641 -0.000066
     NEW TRUST RADIUS =  0.01250
*REMARK   3 HET = Not identified; C 24 H 32 O 7      =    63 atoms res:    1
 PM7 CHARGE=0 EF NOXYZ PRNT=2 PDBOUT COMPFG GRAPHF
 3001664

  O(HETATM    1  O1  HET A   1)   0.00129682 +1    0.0017247 +1    0.0000567 +1
  O(HETATM    2  O2  HET A   1)   7.07147902 +1   -0.0048926 +1   -0.1053051 +1     1     0     0
  O(HETATM    3  O3  HET A   1)   3.21523932 +1   67.6554905 +1   -0.0373136 +1     2     1     0
  O(HETATM    4  O4  HET A   1)   4.85914062 +1   64.1656941 +1 -108.4020727 +1     2     1     3
  O(HETATM    5  O5  HET A   1)   4.81680944 +1   97.0296509 +1   76.7586571 +1     3     2     1
  O(HETATM    6  O6  HET A   1)   2.81437790 +1   30.5887867 +1 -167.6822927 +1     4     2     1
  O(HETATM    7  O7  HET A   1)   2.75756409 +1   30.0697659 +1  130.7302124 +1     5     3     2
  C(HETATM    8  C1  HET A   1)   1.43416658 +1   17.7569419 +1 -169.8240707 +1     1     2     3
  C(HETATM    9  C2  HET A   1)   1.57031085 +1  106.8921715 +1  100.0317095 +1     8     1     2
  C(HETATM   10  C3  HET A   1)   1.56310544 +1  105.4062740 +1  -21.0612656 +1     8     1     2
  C(HETATM   11  C4  HET A   1)   1.55536811 +1  114.8808361 +1 -170.2018682 +1     9     8     1
  C(HETATM   12  C5  HET A   1)   1.52993101 +1  115.6365481 +1 -159.5910447 +1    10     8     1
  C(HETATM   13  C6  HET A   1)   1.52315327 +1  111.7232440 +1   88.3281507 +1    11     9     8
  C(HETATM   14  C7  HET A   1)   1.55304706 +1  106.3156209 +1 -139.3172111 +1     8     1     2
  C(HETATM   15  C8  HET A   1)   1.55159911 +1  112.5218879 +1   63.8323823 +1     9     8     1
  C(HETATM   16  C9  HET A   1)   1.41304353 +1  122.0784801 +1  -92.1134680 +1    12    10     8
  C(HETATM   17  C10 HET A   1)   1.41010722 +1  121.7431346 +1  -94.3840846 +1    13    11     9
  C(HETATM   18  C11 HET A   1)   1.39894733 +1  118.6593255 +1   89.1169194 +1    12    10     8
[...]
    28       C(HETATM   28  C21 HET A   1)    1.42206931  *   95.0480952  * -177.4073257  *     4     2     1
    29       C(HETATM   29  C22 HET A   1)    1.42230701  *  150.5763658  *  -48.6498747  *     5     3     2
    30       C(HETATM   30  C23 HET A   1)    1.42958821  *  117.0618635  *   99.0718594  *     6     4     2
    31       C(HETATM   31  C24 HET A   1)    1.42855027  *  107.6622429  * -102.7547967  *     7     5     3
    32       H(HETATM   32  H2  HET A   1)    1.12153323  *  106.5235800  *  -52.1347486  *     9     8     1
    33       H(HETATM   33 1H3  HET A   1)    1.11042902  *  109.3107674  *   78.8219400  *    10     8     1
    34       H(HETATM   34 2H3  HET A   1)    1.11407794  *  107.7665959  *  -34.0306095  *    10     8     1
    35       H(HETATM   35 1H4  HET A   1)    1.10954751  *  110.6063545  *  -31.7727866  *    11     9     8
    36       H(HETATM   36 2H4  HET A   1)    1.10861426  *  110.3737580  * -146.9404143  *    11     9     8
    37       H(HETATM   37 1H7  HET A   1)    1.09812941  *  110.5412917  *   59.0574753  *    14     8     1
    38       H(HETATM   38 2H7  HET A   1)    1.09655564  *  111.7025364  *  178.2749366  *    14     8     1
    39       H(HETATM   39 3H7  HET A   1)    1.09293938  *  112.1988041  *  -60.6442456  *    14     8     1
    40       H(HETATM   40 1H8  HET A   1)    1.09687652  *  110.8505255  * -172.4423199  *    15     9     8
    41       H(HETATM   41 2H8  HET A   1)    1.09488130  *  111.8441711  *  -53.6531468  *    15     9     8
    42       H(HETATM   42 3H8  HET A   1)    1.09518285  *  111.9479920  *   67.8150599  *    15     9     8
    43       H(HETATM   43  H1  HET A   1)    0.97116103  *  129.7101505  * -156.9132950  *     1     2     3
    44       H(HETATM   44  H11 HET A   1)    1.08805696  *  120.8163983  *    2.6018287  *    18    12    10
    45       H(HETATM   45  H12 HET A   1)    1.08431080  *  119.1995113  *    1.9255777  *    19    13    11
    46       H(HETATM   46 1H19 HET A   1)    1.09599122  *  102.1801403  *  141.0913355  *    26     2     1
    47       H(HETATM   47 2H19 HET A   1)    1.09586554  *  110.1994822  *   23.3616223  *    26     2     1
    48       H(HETATM   48 3H19 HET A   1)    1.09369155  *  111.5031193  *  -99.9537847  *    26     2     1
    49       H(HETATM   49 1H20 HET A   1)    1.09498332  *  111.0156262  * -163.5524117  *    27     3     2
    50       H(HETATM   50 2H20 HET A   1)    1.09421853  *  110.3991975  *   72.9586533  *    27     3     2
    51       H(HETATM   51 3H20 HET A   1)    1.09606818  *  102.3095461  *  -44.9332538  *    27     3     2
    52       H(HETATM   52 1H21 HET A   1)    1.09515804  *  111.5246979  *  -55.4745111  *    28     4     2
    53       H(HETATM   53 2H21 HET A   1)    1.09727664  *  102.1107233  * -173.8641418  *    28     4     2
    54       H(HETATM   54 3H21 HET A   1)    1.09388546  *  110.2453836  *   68.1150546  *    28     4     2
    55       H(HETATM   55 1H22 HET A   1)    1.09399370  *  111.0564180  *   62.4703656  *    29     5     3
    56       H(HETATM   56 2H22 HET A   1)    1.09433505  *  111.0544522  *  -62.3197912  *    29     5     3
    57       H(HETATM   57 3H22 HET A   1)    1.09829316  *  101.9734970  * -179.8555015  *    29     5     3
    58       H(HETATM   58 1H23 HET A   1)    1.09476130  *  102.7949265  *  115.2364693  *    30     6     4
    59       H(HETATM   59 2H23 HET A   1)    1.09322284  *  110.6643734  *   -3.4748605  *    30     6     4
    60       H(HETATM   60 3H23 HET A   1)    1.09627334  *  110.6253148  * -126.3473375  *    30     6     4
    61       H(HETATM   61 1H24 HET A   1)    1.09481743  *  110.5860604  *  126.6990063  *    31     7     5
    62       H(HETATM   62 2H24 HET A   1)    1.09376231  *  110.3513627  *    3.4679518  *    31     7     5
    63       H(HETATM   63 3H24 HET A   1)    1.09524433  *  102.6815784  * -114.5821680  *    31     7     5

                             CARTESIAN COORDINATES

   1    O        0.760007906     0.204158395     0.325026131
   2    O        7.622304853     0.204158395     0.325026131
   3    O        6.572446548     3.088952661     0.325026131
   4    O        5.417349950    -0.902780738    -3.885980015
   5    O        5.401986078     3.323236747     4.901167179
   6    O        7.865575650    -0.808219082    -2.314289316
   7    O        6.424863526     4.501403945     2.784143776
   8    C        2.115481751    -0.228653592     0.428161348
   9    C        2.446470045    -0.307920891     1.944630072
  10    C        2.854062491     0.929629331    -0.290892064
  11    C        3.944609328    -0.560672606     2.209912533
  12    C        4.189804896     0.526686193    -0.827318347
  13    C        4.669410555     0.743376792     2.355529450
  14    C        2.255686298    -1.563049950    -0.303692433
  15    C        1.611978216    -1.388152298     2.642053479
  16    C        5.346462459     0.674316771    -0.048321091
  17    C        5.305069541     1.326122178     1.258257301
  18    C        4.281022962     0.014030426    -2.118459197
  19    C        4.666943653     1.383132539     3.599776542
  20    C        6.569189681     0.205646686    -0.545866234
  21    C        5.913450134     2.583697340     1.412439929
  22    C        5.514198155    -0.424832536    -2.621240923
  23    C        5.301158932     2.613495653     3.749016670
  24    C        6.660764986    -0.370398723    -1.820431203
  25    C        5.918710860     3.234751006     2.645347678
  26    C        8.748488349     0.961277294    -0.115475430
  27    C        6.042005768     4.328712669    -0.140410972
  28    C        6.623269798    -1.155669510    -4.595969956
  29    C        4.758406968     2.774980692     6.044923473
  30    C        8.287294217    -2.024944601    -1.693439175
  31    C        7.846122976     4.493586914     2.928075547
  32    H        2.161000861     0.682963951     2.385641813
  33    H        2.942074145     1.794197447     0.400359360
  34    H        2.194368459     1.296769512    -1.110148762
  35    H        4.386553517    -1.175337856     1.398760492
  36    H        4.076718165    -1.172038927     3.125228903
  37    H        1.971327277    -1.455517086    -1.358900860
  38    H        3.288693843    -1.930335198    -0.282926498
  39    H        1.617936233    -2.339179432     0.126905265
  40    H        1.751754235    -1.348209553     3.729254167
  41    H        0.540470785    -1.256147840     2.459812673
  42    H        1.890797520    -2.395510202     2.315074377
  43    H        0.139529131    -0.483109115     0.617982096
  44    H        3.400409492    -0.056791343    -2.753575053
  45    H        4.169103838     0.908175965     4.437810962
  46    H        9.442831432     0.853598277     0.725648620
  47    H        8.467508208     2.011333942    -0.254588655
  48    H        9.172920612     0.549991700    -1.035726817
  49    H        6.191140448     5.122100818     0.599374511
  50    H        4.982160884     4.220395402    -0.390031468
  51    H        6.636345782     4.513145153    -1.042691456
  52    H        7.303020873    -0.298146006    -4.551663552
  53    H        6.259412083    -1.312533781    -5.619208533
  54    H        7.107990599    -2.057052408    -4.209783443
  55    H        5.200499300     1.813264644     6.321471520
  56    H        3.678913136     2.691007986     5.886144194
  57    H        4.973711080     3.531094141     6.811855321
  58    H        9.233750350    -2.240147577    -2.199809367
  59    H        7.557677196    -2.820148704    -1.867925865
  60    H        8.444350808    -1.875868904    -0.618764855
  61    H        8.320221376     4.056029649     2.043542028
  62    H        8.133660316     3.953773089     3.834849670
  63    H        8.084428327     5.558700689     3.019198267


           Empirical Formula: C24 H32 O7  =    63 atoms



      MOLECULAR POINT GROUP   :   C1  


                  EIGENVALUES  
 -31.35519 -30.82070 -30.62143 -30.40288 -30.20206 -29.82352 -29.75722 -29.39738
 -29.31634 -28.02945 -27.08720 -26.57936 -25.86071 -25.16083 -24.97290 -24.63001
 -24.43504 -24.20343 -24.07854 -23.92469 -23.49194 -23.46307 -22.50797 -21.58943
 -21.05559 -20.29679 -19.97693 -19.57413 -18.48744 -17.88024 -17.68695 -17.40540
 -17.00738 -16.89096 -16.68311 -16.26613 -16.08760 -15.99931 -15.92120 -15.82214
 -15.55122 -15.41058 -15.31471 -15.26739 -15.16306 -15.00490 -14.94082 -14.84945
 -14.48774 -14.46521 -14.35762 -14.24783 -14.02958 -13.96820 -13.90215 -13.52345
 -13.35031 -13.22925 -13.12939 -12.95793 -12.79003 -12.71176 -12.69772 -12.55534
 -12.50762 -12.45449 -12.29291 -12.25752 -12.10543 -11.94846 -11.84402 -11.72407
 -11.55293 -11.43824 -11.22377 -11.11486 -10.61955 -10.53285 -10.24188  -9.85411
  -9.71410  -9.07518  -8.97995  -8.78279  -8.35052   0.22016   0.26767   0.30546
   0.64595   1.74715   1.82843   2.20635   2.22829   2.53852   2.59333   2.74026
   2.79239   2.98961   3.71378   3.84986   3.96962   4.05613   4.12606   4.25743
   4.32309   4.45965   4.47985   4.49227   4.64676   4.70963   4.78975   4.82247
   4.87799   4.90536   5.03176   5.10680   5.14437   5.19836   5.22761   5.34185
   5.38108   5.38512   5.49842   5.60131   5.62744   5.63593   5.65749   5.70324
   5.73409   5.75672   5.79446   5.82852   5.86988   5.88049   5.90236   5.90820
   5.94519   5.95635   5.96728   6.01088   6.03284   6.07864   6.08983   6.25123
   6.27399   6.35401   6.36255   6.43334   6.47136   6.52373   6.59026   6.60148
   6.64924   6.82146   6.92597   7.14314


              NET ATOMIC CHARGES AND DIPOLE CONTRIBUTIONS

  ATOM NO.                 TYPE                        CHARGE      No. of ELECS.   s-Pop       p-Pop       
    1          O(HETATM    1  O1  HET A   1)          -0.597090        6.5971     1.84845     4.74864
    2          O(HETATM    2  O2  HET A   1)          -0.326735        6.3267     1.86942     4.45732
    3          O(HETATM    3  O3  HET A   1)          -0.333106        6.3331     1.86974     4.46336
    4          O(HETATM    4  O4  HET A   1)          -0.307375        6.3074     1.86449     4.44289
    5          O(HETATM    5  O5  HET A   1)          -0.272080        6.2721     1.86955     4.40253
    6          O(HETATM    6  O6  HET A   1)          -0.323165        6.3232     1.87577     4.44739
    7          O(HETATM    7  O7  HET A   1)          -0.301285        6.3013     1.87611     4.42517
    8          C(HETATM    8  C1  HET A   1)           0.345010        3.6550     1.08778     2.56721
    9          C(HETATM    9  C2  HET A   1)          -0.132375        4.1324     1.07374     3.05864
   10          C(HETATM   10  C3  HET A   1)          -0.320365        4.3204     1.06350     3.25686
   11          C(HETATM   11  C4  HET A   1)          -0.289887        4.2899     1.05933     3.23056
   12          C(HETATM   12  C5  HET A   1)           0.096125        3.9039     1.06926     2.83462
   13          C(HETATM   13  C6  HET A   1)           0.094114        3.9059     1.07158     2.83430
   14          C(HETATM   14  C7  HET A   1)          -0.507174        4.5072     1.06286     3.44432
   15          C(HETATM   15  C8  HET A   1)          -0.455595        4.4556     1.05597     3.39962
   16          C(HETATM   16  C9  HET A   1)          -0.119962        4.1200     1.04989     3.07007
   17          C(HETATM   17  C10 HET A   1)          -0.109546        4.1095     1.05007     3.05948
   18          C(HETATM   18  C11 HET A   1)          -0.306366        4.3064     1.07367     3.23270
   19          C(HETATM   19  C12 HET A   1)          -0.346179        4.3462     1.07090     3.27528
   20          C(HETATM   20  C13 HET A   1)           0.226275        3.7737     1.08505     2.68867
   21          C(HETATM   21  C14 HET A   1)           0.219648        3.7804     1.08431     2.69604
   22          C(HETATM   22  C15 HET A   1)           0.230705        3.7693     1.08635     2.68294
   23          C(HETATM   23  C16 HET A   1)           0.220407        3.7796     1.08835     2.69124
   24          C(HETATM   24  C17 HET A   1)          -0.052524        4.0525     1.06820     2.98432
   25          C(HETATM   25  C18 HET A   1)          -0.017942        4.0179     1.06710     2.95084
   26          C(HETATM   26  C19 HET A   1)          -0.198666        4.1987     1.08854     3.11012
   27          C(HETATM   27  C20 HET A   1)          -0.194026        4.1940     1.08775     3.10628
   28          C(HETATM   28  C21 HET A   1)          -0.190068        4.1901     1.08793     3.10214
   29          C(HETATM   29  C22 HET A   1)          -0.215464        4.2155     1.08729     3.12817
   30          C(HETATM   30  C23 HET A   1)          -0.209418        4.2094     1.08714     3.12228
   31          C(HETATM   31  C24 HET A   1)          -0.208231        4.2082     1.08687     3.12136
   32          H(HETATM   32  H2  HET A   1)           0.158063        0.8419     0.84194
   33          H(HETATM   33 1H3  HET A   1)           0.172370        0.8276     0.82763
   34          H(HETATM   34 2H3  HET A   1)           0.175452        0.8245     0.82455
   35          H(HETATM   35 1H4  HET A   1)           0.164797        0.8352     0.83520
   36          H(HETATM   36 2H4  HET A   1)           0.150450        0.8495     0.84955
   37          H(HETATM   37 1H7  HET A   1)           0.163968        0.8360     0.83603
   38          H(HETATM   38 2H7  HET A   1)           0.165855        0.8341     0.83415
   39          H(HETATM   39 3H7  HET A   1)           0.142916        0.8571     0.85708
   40          H(HETATM   40 1H8  HET A   1)           0.145159        0.8548     0.85484
   41          H(HETATM   41 2H8  HET A   1)           0.137757        0.8622     0.86224
   42          H(HETATM   42 3H8  HET A   1)           0.145054        0.8549     0.85495
   43          H(HETATM   43  H1  HET A   1)           0.315778        0.6842     0.68422
   44          H(HETATM   44  H11 HET A   1)           0.180442        0.8196     0.81956
   45          H(HETATM   45  H12 HET A   1)           0.168793        0.8312     0.83121
   46          H(HETATM   46 1H19 HET A   1)           0.141876        0.8581     0.85812
   47          H(HETATM   47 2H19 HET A   1)           0.146036        0.8540     0.85396
   48          H(HETATM   48 3H19 HET A   1)           0.141163        0.8588     0.85884
   49          H(HETATM   49 1H20 HET A   1)           0.145323        0.8547     0.85468
   50          H(HETATM   50 2H20 HET A   1)           0.134373        0.8656     0.86563
   51          H(HETATM   51 3H20 HET A   1)           0.141982        0.8580     0.85802
   52          H(HETATM   52 1H21 HET A   1)           0.144797        0.8552     0.85520
   53          H(HETATM   53 2H21 HET A   1)           0.140517        0.8595     0.85948
   54          H(HETATM   54 3H21 HET A   1)           0.136413        0.8636     0.86359
   55          H(HETATM   55 1H22 HET A   1)           0.133801        0.8662     0.86620
   56          H(HETATM   56 2H22 HET A   1)           0.136380        0.8636     0.86362
   57          H(HETATM   57 3H22 HET A   1)           0.150245        0.8498     0.84975
   58          H(HETATM   58 1H23 HET A   1)           0.138411        0.8616     0.86159
   59          H(HETATM   59 2H23 HET A   1)           0.127445        0.8726     0.87256
   60          H(HETATM   60 3H23 HET A   1)           0.147541        0.8525     0.85246
   61          H(HETATM   61 1H24 HET A   1)           0.137142        0.8629     0.86286
   62          H(HETATM   62 2H24 HET A   1)           0.130667        0.8693     0.86933
   63          H(HETATM   63 3H24 HET A   1)           0.141373        0.8586     0.85863
 DIPOLE           X         Y         Z       TOTAL
 POINT-CHG.     1.558    -2.394     1.363     3.165
 HYBRID         0.070    -0.169     0.020     0.184
 SUM            1.628    -2.563     1.383     3.336


          ATOMIC ORBITAL ELECTRON POPULATIONS

                   Atom                  s        px        py        pz   
   O(HETATM    1  O1  HET A   1)   1.84845   1.30191   1.53830   1.90843
   O(HETATM    2  O2  HET A   1)   1.86942   1.30192   1.71393   1.44147
   O(HETATM    3  O3  HET A   1)   1.86974   1.55953   1.41763   1.48619
   O(HETATM    4  O4  HET A   1)   1.86449   1.33810   1.80240   1.30239
   O(HETATM    5  O5  HET A   1)   1.86955   1.70665   1.47042   1.22546
   O(HETATM    6  O6  HET A   1)   1.87577   1.38846   1.43214   1.62679
   O(HETATM    7  O7  HET A   1)   1.87611   1.23987   1.24315   1.94215
   C(HETATM    8  C1  HET A   1)   1.08778   0.74037   0.90550   0.92135
   C(HETATM    9  C2  HET A   1)   1.07374   0.96522   1.07703   1.01639
   C(HETATM   10  C3  HET A   1)   1.06350   1.02144   1.08361   1.15181
   C(HETATM   11  C4  HET A   1)   1.05933   1.01132   1.04112   1.17812
   C(HETATM   12  C5  HET A   1)   1.06926   0.96222   0.92463   0.94777
   C(HETATM   13  C6  HET A   1)   1.07158   0.92653   0.95881   0.94896
   C(HETATM   14  C7  HET A   1)   1.06286   1.18560   1.09214   1.16658
   C(HETATM   15  C8  HET A   1)   1.05597   1.13281   1.11725   1.14957
   C(HETATM   16  C9  HET A   1)   1.04989   0.97853   1.08319   1.00834
   C(HETATM   17  C10 HET A   1)   1.05007   1.06790   1.00556   0.98602
   C(HETATM   18  C11 HET A   1)   1.07367   1.05895   1.12726   1.04649
   C(HETATM   19  C12 HET A   1)   1.07090   1.15366   1.04289   1.07872
   C(HETATM   20  C13 HET A   1)   1.08505   0.87467   0.91427   0.89973
   C(HETATM   21  C14 HET A   1)   1.08431   0.90078   0.93487   0.86039
   C(HETATM   22  C15 HET A   1)   1.08635   0.96097   0.89723   0.82473
   C(HETATM   23  C16 HET A   1)   1.08835   0.93075   0.91648   0.84401
   C(HETATM   24  C17 HET A   1)   1.06820   0.87601   1.10830   1.00001
   C(HETATM   25  C18 HET A   1)   1.06710   1.08191   0.90574   0.96320
   C(HETATM   26  C19 HET A   1)   1.08854   0.91076   1.06609   1.13327
   C(HETATM   27  C20 HET A   1)   1.08775   1.11456   0.89613   1.09559
   C(HETATM   28  C21 HET A   1)   1.08793   0.93026   1.14408   1.02780
   C(HETATM   29  C22 HET A   1)   1.08729   1.09016   1.12317   0.91484
   C(HETATM   30  C23 HET A   1)   1.08714   1.10073   0.90863   1.11292
   C(HETATM   31  C24 HET A   1)   1.08687   0.83053   1.14703   1.14380
   H(HETATM   32  H2  HET A   1)   0.84194
   H(HETATM   33 1H3  HET A   1)   0.82763
   H(HETATM   34 2H3  HET A   1)   0.82455
   H(HETATM   35 1H4  HET A   1)   0.83520
   H(HETATM   36 2H4  HET A   1)   0.84955
   H(HETATM   37 1H7  HET A   1)   0.83603
   H(HETATM   38 2H7  HET A   1)   0.83415
   H(HETATM   39 3H7  HET A   1)   0.85708
   H(HETATM   40 1H8  HET A   1)   0.85484
   H(HETATM   41 2H8  HET A   1)   0.86224
   H(HETATM   42 3H8  HET A   1)   0.85495
   H(HETATM   43  H1  HET A   1)   0.68422
   H(HETATM   44  H11 HET A   1)   0.81956
   H(HETATM   45  H12 HET A   1)   0.83121
   H(HETATM   46 1H19 HET A   1)   0.85812
   H(HETATM   47 2H19 HET A   1)   0.85396
   H(HETATM   48 3H19 HET A   1)   0.85884
   H(HETATM   49 1H20 HET A   1)   0.85468
   H(HETATM   50 2H20 HET A   1)   0.86563
   H(HETATM   51 3H20 HET A   1)   0.85802
   H(HETATM   52 1H21 HET A   1)   0.85520
   H(HETATM   53 2H21 HET A   1)   0.85948
   H(HETATM   54 3H21 HET A   1)   0.86359
   H(HETATM   55 1H22 HET A   1)   0.86620
   H(HETATM   56 2H22 HET A   1)   0.86362
   H(HETATM   57 3H22 HET A   1)   0.84975
   H(HETATM   58 1H23 HET A   1)   0.86159
   H(HETATM   59 2H23 HET A   1)   0.87256
   H(HETATM   60 3H23 HET A   1)   0.85246
   H(HETATM   61 1H24 HET A   1)   0.86286
   H(HETATM   62 2H24 HET A   1)   0.86933
   H(HETATM   63 3H24 HET A   1)   0.85863

           DATA FOR GRAPH WRITTEN TO DISK

 **********************
 *                    *
 * JOB ENDED NORMALLY *
 *                    *
 **********************



 TOTAL JOB TIME:            15.47 SECONDS

 == MOPAC DONE ==
