 *******************************************************************************
 **                                                                           **
 **                              MOPAC v22.0.6                                **
 **                                                                           **
 *******************************************************************************
 **          Digital Object Identifier (DOI): 10.5281/zenodo.6511958          **
 **    Visit the DOI location for information on how to cite this program.    **
 *******************************************************************************

                              PM7 CALCULATION RESULTS

 *******************************************************************************
 *  CALCULATION DONE:                                Sun Oct 12 23:00:26 2025  *
 *  PM7        - The PM7 Hamiltonian to be used
 *  PDBOUT     - PRINT GEOMETRY IN PDB FORMAT
 *  RESIDUES   - DETERMINE THE SEQUENCE OF RESIDUES
 *
 *
 *
 *                 CHARGE ON SYSTEM = +1
 *
 *
 *
 *  EF         - USE EF ROUTINE FOR MINIMUM SEARCH
 *  T=         - A TIME OF 172800.0 SECONDS REQUESTED
 *  DUMP=N     - RESTART FILE WRITTEN EVERY 7200.0 SECONDS REQUESTED
 *  NOXYZ      - CARTESIAN COORDINATES NOT TO BE PRINTED
 *  PRNT       - EXTRA PRINTING IN EF ROUTINE
 *  GRAPH      - GENERATE FILE FOR GRAPHICS
 *  COMPFG     - PRINT HEAT OF FORMATION CALC'D IN COMPFG
 *******************************************************************************
PM7 CHARGE=+1 EF NOXYZ PRNT=2 PDBOUT COMPFG GRAPHF
 3152

  ATOM    CHEMICAL      BOND LENGTH      BOND ANGLE     TWIST ANGLE 
 NUMBER    SYMBOL       (ANGSTROMS)      (DEGREES)       (DEGREES) 
   (I)                     NA:I           NB:NA:I       NC:NB:NA:I       NA    NB    NC 
     1       O          0.00000000  *    0.0000000  *    0.0000000  *     0     0     0
     2       O          6.45665200  *    0.0000000  *    0.0000000  *     1     0     0
     3       O          2.70149800  *   55.2276490  *    0.0000000  *     2     1     0
     4       N          7.18480400  *  103.9048670  * -168.1260080  *     1     2     3
     5       C          2.94800700  *   19.6582100  *   25.3705150  *     4     1     2
     6       C          1.54768000  *  152.6028480  *   23.5674580  *     5     4     1
     7       C          1.54363400  *  114.9882710  * -122.3549000  *     6     5     4
     8       C          1.53867400  *   57.7163330  *   92.5388560  *     5     4     1
     9       C          1.53883300  *   57.8019760  *  -54.7837570  *     5     4     1
    10       C          1.48243200  *   71.0909870  *   73.2601380  *     4     1     2
    11       C          1.48425100  *   59.8567200  *  -55.2574240  *     4     1     2
    12       C          1.55644000  *  113.9303540  *  -59.3755870  *     7     6     5
    13       C          1.22146900  *   39.8381910  * -175.7792430  *     1     2     3
    14       C          1.49593200  *  104.6038100  * -125.5200680  *    12     7     6
    15       C          1.36834600  *  112.2264030  *    3.9454320  *    14    12     7
    16       C          1.48400900  *  169.1628320  *  -18.0460360  *     4     1     2
    17       C          1.39396400  *  126.8741400  * -177.4768970  *    14    12     7
    18       C          1.39348200  *  121.8416460  *  178.3834720  *    15    14    12
    19       C          1.51365500  *  113.1124540  *  -94.9237620  *    16     4     1
    20       C          1.35953700  *    6.5888000  *  171.4287650  *     2     1     3
    21       C          1.35900400  *   61.7888650  *    0.7809830  *     3     2     1
    22       C          1.40565100  *  120.7338060  *  -61.0764550  *    19    16     4
    23       C          1.40627300  *  120.0888620  *  119.3403070  *    19    16     4
    24       C          1.39865400  *  120.2671040  * -179.8056520  *    22    19    16
    25       C          1.39774800  *  120.3492570  *  179.7747610  *    23    19    16
    26       C          1.39683700  *  120.0833000  *   -0.0417710  *    25    23    19
    27       C          1.37941500  *  132.3445070  * -177.8217820  *     2     1     3
    28       C          1.37943900  *  172.1526390  *  169.1326820  *     3     2     1
    29       H          1.11213400  *   98.5606330  * -161.1552400  *     5     4     1
    30       H          1.11286500  *  109.0857750  *   -0.8033590  *     6     5     4
    31       H          1.11319600  *  108.0799970  *  116.2569130  *     6     5     4
    32       H          1.11158500  *  110.6184800  *   65.4659670  *     7     6     5
    33       H          1.11190200  *  110.2144610  *  148.5609490  *     8     5     4
    34       H          1.11314000  *  109.9111320  *  -92.1793730  *     8     5     4
    35       H          1.11246700  *  109.9993220  *   92.1998370  *     9     5     4
    36       H          1.10998300  *  110.6185950  * -147.8679250  *     9     5     4
    37       H          1.11462200  *  110.3914450  * -108.7816540  *    10     4     1
    38       H          1.11342400  *  110.2295300  *  132.1084710  *    10     4     1
    39       H          1.11435600  *  110.2769910  *  114.7639070  *    11     4     1
    40       H          1.11200700  *  110.5437650  * -126.0188940  *    11     4     1
    41       H          1.11049600  *  112.7394010  *  -10.2420950  *    12     7     6
    42       H          1.11109100  *  110.6721380  *  113.7137740  *    12     7     6
    43       H          1.11449200  *  109.5145650  *   27.9809300  *    16     4     1
    44       H          1.11340200  *  109.8290230  *  145.2792800  *    16     4     1
    45       H          1.08170200  *  119.1420650  *    1.3979960  *    17    14    12
    46       H          1.08172400  *  119.4838950  * -179.7984750  *    18    15    14
    47       H          1.08236500  *  120.5776960  *    0.0306280  *    22    19    16
    48       H          1.08297800  *  120.6024270  *   -0.2617840  *    23    19    16
    49       H          1.08227300  *  119.9804670  * -179.9839560  *    24    22    19
    50       H          1.08255100  *  119.9246150  *  179.9762400  *    25    23    19
    51       H          1.08221400  *  119.9493900  * -179.9735360  *    26    25    23
    52       H          1.10920900  *  109.0491570  *  178.1396830  *    27     2     1
    53       H          1.11058900  *  110.3347940  *  -62.6259510  *    27     2     1
    54       H          1.11117300  *  110.1241840  *   59.1510450  *    27     2     1
    55       H          1.10925700  *  109.0577510  *   12.2791280  *    28     3     2
    56       H          1.11057700  *  110.3162180  *  131.5111120  *    28     3     2
    57       H          1.11116300  *  110.1363620  * -106.7084470  *    28     3     2
    58       H          1.04793600  *   80.9061500  * -173.6832640  *     4     1     2


 General Reference for PM7:
 "Optimization of Parameters for Semiempirical Methods VI: More Modifications to the 
 NDDO Approximations and Re-optimization of Parameters", J. J. P. Stewart, J. Mol. Mod., 1:32, 19 (2013)
 https://link.springer.com/article/10.1007/s00894-012-1667-x

           Empirical Formula: C24 H30 N O3  =    58 atoms



      MOLECULAR POINT GROUP   :   C1  


      RHF CALCULATION, NO. OF DOUBLY OCCUPIED LEVELS = 74


          Geometry optimization using EF

  HEAT OF FORMATION        76.074785059201531    
 PARAMETERS        0.000   0.000   0.000   6.457   0.000   0.000   2.701   0.964
   0.000   7.185   1.813   3.349   2.948   0.343   0.443   1.548   2.663   0.411

   1.544   2.007   4.148   1.539   1.007   1.615   1.539   1.009   5.327   1.482

   1.241   1.279   1.484   1.045   5.319   1.556   1.988   5.247   1.221   0.695

   3.215   1.496   1.826   4.092   1.368   1.959   0.069   1.484   2.952   5.968

   1.394   2.214   3.186   1.393   2.127   3.113   1.514   1.974   4.626   1.360

   0.115   2.992   1.359   1.078   0.014   1.406   2.107   5.217   1.406   2.096

   2.083   1.399   2.099   3.145   1.398   2.100   3.138   1.397   2.096   6.282

   1.379   2.310   3.180   1.379   3.005   2.952   1.112   1.720   3.470   1.113

   1.904   6.269   1.113   1.886   2.029   1.112   1.931   1.143   1.112   1.924

   2.593   1.113   1.918   4.674   1.112   1.920   1.609   1.110   1.931   3.702

   1.115   1.927   4.385   1.113   1.924   2.306   1.114   1.925   2.003   1.112

   1.929   4.084   1.110   1.968   6.104   1.111   1.932   1.985   1.114   1.911

   0.488   1.113   1.917   2.536   1.082   2.079   0.024   1.082   2.085   3.145

   1.082   2.104   0.001   1.083   2.105   6.279   1.082   2.094   3.142   1.083

   2.093   3.141   1.082   2.094   3.142   1.109   1.903   3.109   1.111   1.926

   5.190   1.111   1.922   1.032   1.109   1.903   0.214   1.111   1.925   2.295

   1.111   1.922   4.421   1.048   1.412   3.252
 GRADIENT         -0.000  -0.000  -0.000  42.186   0.000   0.000  -7.265  29.260
   0.000  15.280  86.179   0.571 -44.084-389.569 -15.933   9.911-244.374  84.050

 -29.113  88.314  77.805   2.273  -6.564   8.328   5.893  -7.776  -7.270 -35.172

 -11.279   3.035 -28.888 -14.519   1.371 -63.755  44.132 -61.599  74.529   8.951

  -0.389 -67.802-139.441   7.711 -14.091 -93.694  -3.658 -30.189  -0.004   2.611

  -6.928 -26.216  -0.617 -12.326  32.484   0.143  10.349   8.970  -0.335   6.518

 -57.794  -1.038   0.002 -65.582  -1.034  15.390  -2.958   2.136  19.680  -3.718

  -0.895   7.300   4.585   0.020   8.924  10.656   0.916   1.877   4.755   0.136

 -22.289  25.191   0.669 -21.744 -26.128   0.798  -3.977  -3.496  -1.100   1.802

  -3.161  -2.332   2.236  -2.541   2.577  -2.905   3.514   3.473   1.136  -1.181

  -3.618   2.161  -1.139   7.267   2.581  -1.367  -7.079   0.220   0.034   4.659

  -2.229   0.011   3.163  -3.428   0.792  -4.308  -1.179  -0.033  -3.395  -4.761

   2.895   5.871   2.481   2.434  -9.267   5.907  -3.084   3.172  -3.323  -1.989

  -1.806  -6.071   0.152   3.353  -0.567  -4.892  -0.256  -4.061  -2.520   0.117

  -2.675  -0.165   1.173  -3.762   0.873  -0.519  -5.809   0.482   0.233  -5.741

   0.314  -0.228  -6.573  -0.219  -0.106   7.658  15.701  -0.104   6.059  -1.788

   0.356   6.035  -1.921  -0.202   8.209  15.815  -0.149   5.583  -1.721   0.359

   5.868  -1.973  -0.155  -7.837   1.052  -3.346

          DIAGONAL MATRIX USED AS START HESSIAN

*REMARK   3 HET = Not identified; C 24 H 30 N O 3    =    58 atoms res:    1
 PM7 CHARGE=+1 EF NOXYZ PRNT=2 PDBOUT COMPFG GRAPHF
 3152

  O(HETATM    1  O1  HET A   1)   0.00000000 +1    0.0000000 +1    0.0000000 +1
  O(HETATM    2  O2  HET A   1)   6.45665200 +1    0.0000000 +1    0.0000000 +1     1     0     0
  O(HETATM    3  O3  HET A   1)   2.70149800 +1   55.2276490 +1    0.0000000 +1     2     1     0
  N(HETATM    4  N   HET A   1)   7.18480400 +1  103.9048670 +1 -168.1260080 +1     1     2     3
  C(HETATM    5  C1  HET A   1)   2.94800700 +1   19.6582100 +1   25.3705150 +1     4     1     2
  C(HETATM    6  C2  HET A   1)   1.54768000 +1  152.6028480 +1   23.5674580 +1     5     4     1
  C(HETATM    7  C3  HET A   1)   1.54363400 +1  114.9882710 +1 -122.3549000 +1     6     5     4
  C(HETATM    8  C4  HET A   1)   1.53867400 +1   57.7163330 +1   92.5388560 +1     5     4     1
  C(HETATM    9  C5  HET A   1)   1.53883300 +1   57.8019760 +1  -54.7837570 +1     5     4     1
  C(HETATM   10  C6  HET A   1)   1.48243200 +1   71.0909870 +1   73.2601380 +1     4     1     2
  C(HETATM   11  C7  HET A   1)   1.48425100 +1   59.8567200 +1  -55.2574240 +1     4     1     2
  C(HETATM   12  C8  HET A   1)   1.55644000 +1  113.9303540 +1  -59.3755870 +1     7     6     5
  C(HETATM   13  C9  HET A   1)   1.22146900 +1   39.8381910 +1 -175.7792430 +1     1     2     3
  C(HETATM   14  C10 HET A   1)   1.49593200 +1  104.6038100 +1 -125.5200680 +1    12     7     6
  C(HETATM   15  C11 HET A   1)   1.36834600 +1  112.2264030 +1    3.9454320 +1    14    12     7
  C(HETATM   16  C12 HET A   1)   1.48400900 +1  169.1628320 +1  -18.0460360 +1     4     1     2
  C(HETATM   17  C13 HET A   1)   1.39396400 +1  126.8741400 +1 -177.4768970 +1    14    12     7
  C(HETATM   18  C14 HET A   1)   1.39348200 +1  121.8416460 +1  178.3834720 +1    15    14    12
  C(HETATM   19  C15 HET A   1)   1.51365500 +1  113.1124540 +1  -94.9237620 +1    16     4     1
  C(HETATM   20  C16 HET A   1)   1.35953700 +1    6.5888000 +1  171.4287650 +1     2     1     3
  C(HETATM   21  C17 HET A   1)   1.35900400 +1   61.7888650 +1    0.7809830 +1     3     2     1
  C(HETATM   22  C18 HET A   1)   1.40565100 +1  120.7338060 +1  -61.0764550 +1    19    16     4
  C(HETATM   23  C19 HET A   1)   1.40627300 +1  120.0888620 +1  119.3403070 +1    19    16     4
  C(HETATM   24  C20 HET A   1)   1.39865400 +1  120.2671040 +1 -179.8056520 +1    22    19    16
  C(HETATM   25  C21 HET A   1)   1.39774800 +1  120.3492570 +1  179.7747610 +1    23    19    16
  C(HETATM   26  C22 HET A   1)   1.39683700 +1  120.0833000 +1   -0.0417710 +1    25    23    19
  C(HETATM   27  C23 HET A   1)   1.37941500 +1  132.3445070 +1 -177.8217820 +1     2     1     3
  C(HETATM   28  C24 HET A   1)   1.37943900 +1  172.1526390 +1  169.1326820 +1     3     2     1
  H(HETATM   29  H1  HET A   1)   1.11213400 +1   98.5606330 +1 -161.1552400 +1     5     4     1
  H(HETATM   30 1H2  HET A   1)   1.11286500 +1  109.0857750 +1   -0.8033590 +1     6     5     4
  H(HETATM   31 2H2  HET A   1)   1.11319600 +1  108.0799970 +1  116.2569130 +1     6     5     4
  H(HETATM   32  H3  HET A   1)   1.11158500 +1  110.6184800 +1   65.4659670 +1     7     6     5
  H(HETATM   33 1H4  HET A   1)   1.11190200 +1  110.2144610 +1  148.5609490 +1     8     5     4
  H(HETATM   34 2H4  HET A   1)   1.11314000 +1  109.9111320 +1  -92.1793730 +1     8     5     4
  H(HETATM   35 1H5  HET A   1)   1.11246700 +1  109.9993220 +1   92.1998370 +1     9     5     4
  H(HETATM   36 2H5  HET A   1)   1.10998300 +1  110.6185950 +1 -147.8679250 +1     9     5     4
  H(HETATM   37 1H6  HET A   1)   1.11462200 +1  110.3914450 +1 -108.7816540 +1    10     4     1
  H(HETATM   38 2H6  HET A   1)   1.11342400 +1  110.2295300 +1  132.1084710 +1    10     4     1
  H(HETATM   39 1H7  HET A   1)   1.11435600 +1  110.2769910 +1  114.7639070 +1    11     4     1
  H(HETATM   40 2H7  HET A   1)   1.11200700 +1  110.5437650 +1 -126.0188940 +1    11     4     1
  H(HETATM   41 1H8  HET A   1)   1.11049600 +1  112.7394010 +1  -10.2420950 +1    12     7     6
  H(HETATM   42 2H8  HET A   1)   1.11109100 +1  110.6721380 +1  113.7137740 +1    12     7     6
  H(HETATM   43 1H12 HET A   1)   1.11449200 +1  109.5145650 +1   27.9809300 +1    16     4     1
  H(HETATM   44 2H12 HET A   1)   1.11340200 +1  109.8290230 +1  145.2792800 +1    16     4     1
  H(HETATM   45  H13 HET A   1)   1.08170200 +1  119.1420650 +1    1.3979960 +1    17    14    12
  H(HETATM   46  H14 HET A   1)   1.08172400 +1  119.4838950 +1 -179.7984750 +1    18    15    14
  H(HETATM   47  H18 HET A   1)   1.08236500 +1  120.5776960 +1    0.0306280 +1    22    19    16
  H(HETATM   48  H19 HET A   1)   1.08297800 +1  120.6024270 +1   -0.2617840 +1    23    19    16
  H(HETATM   49  H20 HET A   1)   1.08227300 +1  119.9804670 +1 -179.9839560 +1    24    22    19
  H(HETATM   50  H21 HET A   1)   1.08255100 +1  119.9246150 +1  179.9762400 +1    25    23    19
  H(HETATM   51  H22 HET A   1)   1.08221400 +1  119.9493900 +1 -179.9735360 +1    26    25    23
  H(HETATM   52 1H23 HET A   1)   1.10920900 +1  109.0491570 +1  178.1396830 +1    27     2     1
  H(HETATM   53 2H23 HET A   1)   1.11058900 +1  110.3347940 +1  -62.6259510 +1    27     2     1
  H(HETATM   54 3H23 HET A   1)   1.11117300 +1  110.1241840 +1   59.1510450 +1    27     2     1
  H(HETATM   55 1H24 HET A   1)   1.10925700 +1  109.0577510 +1   12.2791280 +1    28     3     2
  H(HETATM   56 2H24 HET A   1)   1.11057700 +1  110.3162180 +1  131.5111120 +1    28     3     2
  H(HETATM   57 3H24 HET A   1)   1.11116300 +1  110.1363620 +1 -106.7084470 +1    28     3     2
  H(HETATM   58  H   HET A   1)   1.04793600 +1   80.9061500 +1 -173.6832640 +1     4     1     2

 XPARAM 
  1  1    0.0000  1  2    0.0000  1  3    0.0000  2  1    6.4567  2  2    0.0000
  2  3    0.0000  3  1    2.7015  3  2    0.9639  3  3    0.0000  4  1    7.1848
  4  2    1.8135  4  3    3.3488  5  1    2.9480  5  2    0.3431  5  3    0.4428
  6  1    1.5477  6  2    2.6634  6  3    0.4113  7  1    1.5436  7  2    2.0069
  7  3    4.1477  8  1    1.5387  8  2    1.0073  8  3    1.6151  9  1    1.5388
  9  2    1.0088  9  3    5.3270 10  1    1.4824 10  2    1.2408 10  3    1.2786
 11  1    1.4843 11  2    1.0447 11  3    5.3188 12  1    1.5564 12  2    1.9885
 12  3    5.2469 13  1    1.2215 13  2    0.6953 13  3    3.2153 14  1    1.4959
 14  2    1.8257 14  3    4.0924 15  1    1.3683 15  2    1.9587 15  3    0.0689
 16  1    1.4840 16  2    2.9524 16  3    5.9682 17  1    1.3940 17  2    2.2144
 17  3    3.1856 18  1    1.3935 18  2    2.1265 18  3    3.1134 19  1    1.5137
 19  2    1.9742 19  3    4.6265 20  1    1.3595 20  2    0.1150 20  3    2.9920
 21  1    1.3590 21  2    1.0784 21  3    0.0136 22  1    1.4057 22  2    2.1072
 22  3    5.2172 23  1    1.4063 23  2    2.0959 23  3    2.0829 24  1    1.3987
 24  2    2.0991 24  3    3.1450 25  1    1.3977 25  2    2.1005 25  3    3.1377
 26  1    1.3968 26  2    2.0958 26  3    6.2825 27  1    1.3794 27  2    2.3098
 27  3    3.1796 28  1    1.3794 28  2    3.0046 28  3    2.9519 29  1    1.1121
 29  2    1.7202 29  3    3.4705 30  1    1.1129 30  2    1.9039 30  3    6.2692
 31  1    1.1132 31  2    1.8864 31  3    2.0291 32  1    1.1116 32  2    1.9307
 32  3    1.1426 33  1    1.1119 33  2    1.9236 33  3    2.5929 34  1    1.1131
 34  2    1.9183 34  3    4.6744 35  1    1.1125 35  2    1.9199 35  3    1.6092
 36  1    1.1100 36  2    1.9307 36  3    3.7024 37  1    1.1146 37  2    1.9267
 37  3    4.3846 38  1    1.1134 38  2    1.9239 38  3    2.3057 39  1    1.1144
 39  2    1.9247 39  3    2.0030 40  1    1.1120 40  2    1.9294 40  3    4.0837
 41  1    1.1105 41  2    1.9677 41  3    6.1044 42  1    1.1111 42  2    1.9316
 42  3    1.9847 43  1    1.1145 43  2    1.9114 43  3    0.4884 44  1    1.1134
 44  2    1.9169 44  3    2.5356 45  1    1.0817 45  2    2.0794 45  3    0.0244
 46  1    1.0817 46  2    2.0854 46  3    3.1451 47  1    1.0824 47  2    2.1045
 47  3    0.0005 48  1    1.0830 48  2    2.1049 48  3    6.2786 49  1    1.0823
 49  2    2.0941 49  3    3.1419 50  1    1.0826 50  2    2.0931 50  3    3.1412
 51  1    1.0822 51  2    2.0935 51  3    3.1421 52  1    1.1092 52  2    1.9033
 52  3    3.1091 53  1    1.1106 53  2    1.9257 53  3    5.1902 54  1    1.1112
 54  2    1.9220 54  3    1.0324 55  1    1.1093 55  2    1.9034 55  3    0.2143
 56  1    1.1106 56  2    1.9254 56  3    2.2953 57  1    1.1112 57  2    1.9222
 57  3    4.4208 58  1    1.0479 58  2    1.4121 58  3    3.2518
 grad
      -0.00001   -0.00000   -0.00000   42.18559    0.00000    0.00000   -7.26499   29.25975
       0.00000   15.28047   86.17897    0.57123  -44.08413 -389.56876  -15.93264    9.91103
    -244.37449   84.04969  -29.11292   88.31362   77.80542    2.27331   -6.56385    8.32833
       5.89283   -7.77637   -7.27000  -35.17183  -11.27859    3.03452  -28.88844  -14.51875
       1.37131  -63.75517   44.13175  -61.59879   74.52890    8.95120   -0.38884  -67.80169
    -139.44051    7.71087  -14.09130  -93.69361   -3.65791  -30.18889   -0.00350    2.61080
      -6.92797  -26.21647   -0.61723  -12.32618   32.48405    0.14337   10.34942    8.97024
      -0.33474    6.51772  -57.79433   -1.03848    0.00231  -65.58171   -1.03437   15.39013
      -2.95825    2.13576   19.68018   -3.71808   -0.89491    7.30007    4.58498    0.02011
       8.92360   10.65610    0.91638    1.87709    4.75540    0.13555  -22.28906   25.19093
       0.66934  -21.74437  -26.12786    0.79840   -3.97707   -3.49616   -1.10017    1.80166
      -3.16055   -2.33206    2.23626   -2.54111    2.57696   -2.90474    3.51357    3.47303
       1.13579   -1.18126   -3.61753    2.16142   -1.13901    7.26651    2.58135   -1.36708
      -7.07860    0.22024    0.03413    4.65924   -2.22916    0.01123    3.16293   -3.42803
       0.79187   -4.30828   -1.17940   -0.03339   -3.39545   -4.76083    2.89543    5.87148
       2.48117    2.43403   -9.26666    5.90707   -3.08396    3.17190   -3.32302   -1.98869
      -1.80634   -6.07120    0.15211    3.35288   -0.56741   -4.89244   -0.25604   -4.06138
      -2.51988    0.11679   -2.67527   -0.16537    1.17348   -3.76211    0.87312   -0.51877
      -5.80856    0.48205    0.23349   -5.74068    0.31385   -0.22787   -6.57278   -0.21890
      -0.10631    7.65846   15.70087   -0.10393    6.05906   -1.78790    0.35577    6.03528
      -1.92087   -0.20174    8.20948   15.81510   -0.14874    5.58260   -1.72079    0.35947
       5.86770   -1.97310   -0.15470   -7.83708    1.05171   -3.34625
 CYCLE:     1 TIME:   0.070 TIME LEFT:  2.00D  GRAD.:   559.202 HEAT:  76.07479

          HESSIAN HAS  0 NEGATIVE EIGENVALUE(S)
  MIN SEARCH, CORRECT HESSIAN, TRYING PURE NR STEP
 LAMBDA THAT MINIMIZES ALONG ALL MODES =        0.000000000
 PURE NR-STEP HAS LENGTH   1.21014
 LAMBDA THAT MINIMIZES ALONG ALL MODES =     -328.482466314
 P-RFO-STEP   HAS LENGTH   0.64705
 LAMBDA THAT MINIMIZES ALONG ALL MODES =    -2084.685349919
 QA/TRIM-STEP HAS LENGTH   0.20000

  HEAT OF FORMATION        1119.1323612542183    
 PARAMETERS        0.002  -0.033   0.012   6.445  -0.011   0.011   2.703   0.929
   0.005   7.178   1.790   3.348   2.963   0.476   0.458   1.540   2.736   0.370

   1.551   1.970   4.113   1.538   0.994   1.616   1.537   1.015   5.335   1.493

   1.228   1.281   1.494   1.053   5.323   1.575   1.974   5.273   1.198   0.683

   3.222   1.516   1.876   4.089   1.370   1.971   0.070   1.489   2.958   5.961

   1.393   2.216   3.184   1.395   2.105   3.112   1.508   1.970   4.626   1.359

   0.128   3.002   1.358   1.080   0.018   1.398   2.110   5.215   1.397   2.084

   2.082   1.393   2.089   3.144   1.392   2.088   3.136   1.394   2.101   6.281

   1.383   2.292   3.177   1.381   3.005   2.945   1.113   1.719   3.471   1.112

   1.907   6.270   1.112   1.883   2.028   1.112   1.924   1.141   1.111   1.921

   2.594   1.112   1.918   4.671   1.111   1.915   1.612   1.109   1.929   3.700

   1.115   1.926   4.383   1.114   1.920   2.307   1.114   1.920   2.004   1.113

   1.927   4.081   1.109   1.968   6.108   1.108   1.928   1.983   1.115   1.906

   0.489   1.115   1.913   2.534   1.081   2.074   0.024   1.082   2.084   3.145

   1.082   2.097  -0.000   1.084   2.106   6.278   1.083   2.091   3.141   1.084

   2.090   3.141   1.084   2.091   3.142   1.106   1.894   3.109   1.108   1.927

   5.190   1.108   1.917   1.032   1.106   1.890   0.214   1.108   1.922   2.295

   1.109   1.922   4.421   1.050   1.409   3.254
 GRADIENT         -0.000  -0.000  -0.000********   0.000   0.000-387.307-888.591
   0.000-928.527******** 252.307 741.443**************** 575.3713114.781 756.226

2581.281********6215.600  54.241-223.852 141.926 -14.922 -13.867 -36.200  39.019

-298.574  56.399 -20.418 -21.793 -28.424 780.4891214.017-881.045  91.298  17.079

 -13.490 991.6442963.559********-162.6672669.203******** -25.254   0.664   1.522

  49.114  34.244   8.272 681.583********2781.473   4.147   8.505  -0.4481350.054

-235.008-292.205 276.300-376.164 586.864 -15.864  86.203   2.286 -34.795  83.914

  -0.925  11.873 -45.165  -0.952 -15.580 -79.754  -0.562  11.336 -36.268  -0.922

 -24.885  -4.119  -2.398 -15.567 -33.909   0.118  -9.431   4.129  -0.580   3.195

  -0.854  -3.295  -2.003  -4.002   3.084   8.028 -13.297  -9.693  -9.634   1.828

  -9.994 -11.256   6.265  19.784  -1.703   1.219 -11.277  -0.366  -2.421   2.235

 -23.144  18.445  27.389 -13.368  10.372  -9.262 -10.661   6.956 -20.455   2.512

  -2.801  -6.894   3.814   5.477  -4.114   5.922   2.662  -2.126  -3.635  -2.327

  -2.236  -5.815   0.185   3.620  11.582 -11.052  13.381-262.296 109.633-395.782

  -3.280  -2.408   1.220  -4.300  -0.432  -0.516  -8.441   2.291   0.042  -6.737

   0.127  -0.312  -8.248   0.626  -0.327   6.262  15.439   0.553   0.551  -2.084

   1.511   6.180  -3.744   1.708   6.657  15.236  -0.671   4.746  -1.043  -0.866

   5.491  -2.500   1.087  -5.498   1.616  -4.036
       HoF         ACTUAL,  PREDICTED ENERGY CHANGE, RATIO
  1119.1323613  1043.0575762         -93.2959001  -11.1801009
 UNACCEPTABLE RATIO, REJECTING STEP, REDUCING DMAX TO 0.1000
  MIN SEARCH, CORRECT HESSIAN, TRYING PURE NR STEP
 LAMBDA THAT MINIMIZES ALONG ALL MODES =        0.000000000
 PURE NR-STEP HAS LENGTH   1.21014
 LAMBDA THAT MINIMIZES ALONG ALL MODES =     -328.482466314
 P-RFO-STEP   HAS LENGTH   0.64705
 LAMBDA THAT MINIMIZES ALONG ALL MODES =    -4662.412074651
 QA/TRIM-STEP HAS LENGTH   0.10000

  HEAT OF FORMATION        1137.4768360029120    
 PARAMETERS        0.001  -0.016   0.006   6.450  -0.006   0.005   2.703   0.946
   0.003   7.181   1.802   3.348   2.956   0.410   0.450   1.543   2.700   0.392

   1.547   1.988   4.131   1.538   1.001   1.616   1.538   1.012   5.331   1.488

   1.234   1.280   1.489   1.049   5.321   1.566   1.981   5.259   1.209   0.689

   3.218   1.507   1.851   4.091   1.369   1.965   0.069   1.487   2.955   5.965

   1.394   2.215   3.185   1.394   2.116   3.113   1.511   1.972   4.626   1.359

   0.121   2.997   1.359   1.079   0.016   1.402   2.109   5.216   1.401   2.090

   2.082   1.396   2.094   3.144   1.395   2.094   3.137   1.395   2.099   6.282

   1.382   2.301   3.178   1.381   3.005   2.949   1.113   1.720   3.471   1.112

   1.905   6.270   1.112   1.885   2.029   1.112   1.927   1.142   1.111   1.922

   2.594   1.112   1.918   4.673   1.112   1.918   1.611   1.110   1.930   3.701

   1.115   1.926   4.384   1.114   1.922   2.307   1.114   1.923   2.004   1.112

   1.928   4.082   1.110   1.968   6.106   1.110   1.930   1.984   1.115   1.908

   0.489   1.114   1.915   2.535   1.081   2.077   0.024   1.082   2.085   3.145

   1.082   2.101   0.000   1.083   2.106   6.279   1.083   2.093   3.142   1.083

   2.092   3.141   1.083   2.092   3.142   1.107   1.899   3.109   1.109   1.926

   5.190   1.110   1.919   1.032   1.107   1.897   0.214   1.109   1.924   2.295

   1.110   1.922   4.421   1.049   1.411   3.253
 GRADIENT          0.000  -0.000  -0.000********   0.000   0.000-460.940********
   0.000****************1853.1483490.7383022.475********2741.0095612.462-890.192

3897.965********2679.675  22.662 -91.751  64.565  -3.910 -11.287 -21.961  -9.197

-129.283  30.714 -24.164 -17.094 -13.5361705.320 303.969   9.052 -81.387  44.524

 -40.0893681.7947710.541******** 802.4296781.689******** -26.471   0.356   2.106

  80.422-180.401 -41.9363391.188********2326.468   7.240   8.904  -0.379 369.566

-338.954 -12.8783280.8301707.9502034.330  -0.072  40.837   2.090  -7.209  39.230

  -0.820   9.100 -19.867  -0.506  -3.058 -33.407   0.010   6.444 -15.122  -0.459

 -21.160   1.980   7.136 -29.158 -13.565  -0.222  -5.811  -0.157  -1.059   2.947

  -1.784  -2.249   1.531  -3.517   1.854  -1.296   0.871  14.170  -3.206   0.582

  -6.796  -3.509   2.659  13.042   0.679   0.198  -9.414   0.225  -0.476   3.745

 -10.769   8.142  13.710  -7.305   5.197  -6.673  -5.269   3.702 -11.276  -0.545

   0.338  -0.907   3.351   5.467  -7.965   6.832   0.718   2.209  -3.051  -1.962

  -1.983  -5.491   0.300   3.509  22.675 -38.803  -9.651-220.446 168.988 -90.809

  -2.847  -1.214   1.117  -3.712   0.292  -0.461  -6.712   1.400   0.117  -5.738

   0.220  -0.248  -6.881   0.205  -0.194   6.331  12.256  -0.245   3.862  -2.404

   3.009   5.841   0.440   0.326   6.435  13.387  -0.255   4.967  -3.099   1.812

   5.004  -3.044  -1.568  -6.110   1.551  -3.688
       HoF         ACTUAL,  PREDICTED ENERGY CHANGE, RATIO
  1137.4768360  1061.4020509         -49.1482470  -21.5959290
 UNACCEPTABLE RATIO, REJECTING STEP, REDUCING DMAX TO 0.0500
  MIN SEARCH, CORRECT HESSIAN, TRYING PURE NR STEP
 LAMBDA THAT MINIMIZES ALONG ALL MODES =        0.000000000
 PURE NR-STEP HAS LENGTH   1.21014
 LAMBDA THAT MINIMIZES ALONG ALL MODES =     -328.482466314
 P-RFO-STEP   HAS LENGTH   0.64705
 LAMBDA THAT MINIMIZES ALONG ALL MODES =    -9828.374051848
 QA/TRIM-STEP HAS LENGTH   0.05000

  HEAT OF FORMATION        358.37313563779753    
 PARAMETERS        0.001  -0.008   0.003   6.453  -0.003   0.003   2.702   0.955
   0.001   7.183   1.808   3.349   2.952   0.376   0.446   1.546   2.682   0.402

   1.546   1.998   4.140   1.538   1.004   1.615   1.538   1.010   5.329   1.485

   1.237   1.279   1.487   1.047   5.320   1.562   1.985   5.253   1.215   0.692

   3.217   1.502   1.838   4.092   1.369   1.962   0.069   1.485   2.954   5.966

   1.394   2.215   3.185   1.394   2.121   3.113   1.512   1.973   4.626   1.359

   0.118   2.994   1.359   1.079   0.015   1.403   2.108   5.217   1.404   2.093

   2.083   1.397   2.096   3.145   1.396   2.097   3.137   1.396   2.097   6.282

   1.381   2.305   3.179   1.380   3.005   2.950   1.112   1.720   3.471   1.113

   1.905   6.269   1.113   1.886   2.029   1.112   1.929   1.142   1.112   1.923

   2.593   1.113   1.918   4.674   1.112   1.919   1.610   1.110   1.930   3.702

   1.115   1.926   4.384   1.114   1.923   2.306   1.114   1.924   2.003   1.112

   1.929   4.083   1.110   1.968   6.105   1.110   1.931   1.984   1.115   1.910

   0.489   1.114   1.916   2.535   1.082   2.078   0.024   1.082   2.085   3.145

   1.082   2.103   0.000   1.083   2.105   6.279   1.083   2.093   3.142   1.083

   2.092   3.141   1.083   2.093   3.142   1.108   1.901   3.109   1.110   1.926

   5.190   1.110   1.921   1.032   1.108   1.900   0.214   1.110   1.925   2.295

   1.110   1.922   4.421   1.049   1.411   3.252
 GRADIENT         -0.000  -0.000  -0.000********   0.000   0.000 437.623********
   0.000-546.205 310.775 264.056 954.4909459.365-889.455 346.4387383.680********

1160.673********-873.972  11.236 -44.280  33.951   0.973  -9.629 -14.558 -24.497

 -64.361  16.770 -26.598 -15.478  -6.0421384.296********2966.488 -63.510  64.574

 -24.4061073.7915469.542********-489.7093581.852-300.377 -28.414   0.182   2.344

  22.148-248.700 -31.261 912.316******** 303.591   8.648   8.884  -0.364 167.377

-318.045  -1.655 873.3331279.880 231.008   7.340  19.229   2.135   5.907  18.067

  -0.889   8.081  -7.828  -0.255   2.688 -11.660   0.460   4.078  -5.302  -0.168

 -21.693  15.128   1.474 -22.803 -22.749   0.394  -4.897  -1.878  -1.110   2.229

  -2.524  -2.166   1.840  -2.986   2.105  -3.677   3.367  11.514  -1.027  -0.301

  -5.213  -0.551   0.709  10.080   1.572  -0.581  -8.308   0.116  -0.169   4.243

  -6.231   3.772   8.111  -5.310   2.835  -5.460  -3.247   1.821  -7.208  -2.683

   1.620   2.392   3.028   3.862  -8.618   6.438  -1.292   2.897  -3.251  -1.979

  -1.912  -5.841   0.223   3.447  18.676 -29.304  -0.091 -74.137  64.698 -16.585

  -2.816  -0.710   1.151  -3.810   0.570  -0.494  -6.339   0.945   0.175  -5.821

   0.268  -0.238  -6.808  -0.010  -0.148   6.825  14.637  -0.102   5.100  -1.347

   0.857   5.602  -1.266   0.188   7.605  15.824  -0.128   5.035  -2.412   0.907

   5.117  -2.677  -0.908  -7.019   1.346  -3.507
       HoF         ACTUAL,  PREDICTED ENERGY CHANGE, RATIO
   358.3731356   282.2983506         -25.2082837  -11.1986343
 UNACCEPTABLE RATIO, REJECTING STEP, REDUCING DMAX TO 0.0250
  MIN SEARCH, CORRECT HESSIAN, TRYING PURE NR STEP
 LAMBDA THAT MINIMIZES ALONG ALL MODES =        0.000000000
 PURE NR-STEP HAS LENGTH   1.21014
 LAMBDA THAT MINIMIZES ALONG ALL MODES =     -328.482466314
 P-RFO-STEP   HAS LENGTH   0.64705
 LAMBDA THAT MINIMIZES ALONG ALL MODES =   -20165.962682217
 QA/TRIM-STEP HAS LENGTH   0.02500

  HEAT OF FORMATION        130.04431653680513    
 PARAMETERS        0.000  -0.004   0.001   6.455  -0.001   0.001   2.702   0.959
   0.001   7.184   1.811   3.349   2.950   0.360   0.445   1.547   2.672   0.407

   1.545   2.002   4.144   1.539   1.006   1.615   1.539   1.010   5.328   1.484

   1.239   1.279   1.486   1.046   5.319   1.559   1.987   5.250   1.218   0.694

   3.216   1.499   1.832   4.092   1.369   1.960   0.069   1.485   2.953   5.967

   1.394   2.215   3.185   1.394   2.124   3.113   1.513   1.974   4.626   1.360

   0.117   2.993   1.359   1.079   0.014   1.405   2.108   5.217   1.405   2.094

   2.083   1.398   2.098   3.145   1.397   2.099   3.137   1.396   2.097   6.282

   1.380   2.308   3.179   1.380   3.005   2.951   1.112   1.720   3.471   1.113

   1.904   6.269   1.113   1.886   2.029   1.112   1.930   1.142   1.112   1.923

   2.593   1.113   1.918   4.674   1.112   1.919   1.610   1.110   1.930   3.702

   1.115   1.927   4.384   1.113   1.923   2.306   1.114   1.924   2.003   1.112

   1.929   4.083   1.110   1.968   6.105   1.111   1.931   1.985   1.115   1.911

   0.488   1.114   1.916   2.535   1.082   2.079   0.024   1.082   2.085   3.145

   1.082   2.104   0.000   1.083   2.105   6.279   1.082   2.094   3.142   1.083

   2.093   3.141   1.082   2.093   3.142   1.109   1.902   3.109   1.110   1.926

   5.190   1.111   1.921   1.032   1.109   1.902   0.214   1.110   1.925   2.295

   1.111   1.922   4.421   1.048   1.412   3.252
 GRADIENT         -0.000  -0.000  -0.000-442.658   0.000   0.000 182.693-526.399
   0.000 -58.429 657.077  41.853 207.3694080.903-166.605 -10.9503056.861-580.589

 309.193********-475.146   6.472 -24.293  20.545   3.411  -8.673 -10.901 -30.309

 -36.402   9.846 -27.729 -14.908  -2.327 522.736********1354.905 -19.223  67.434

 -13.267 239.6612036.785-151.494-259.4741172.437  -6.736 -29.292   0.092   2.479

  -5.943-174.001 -13.856 209.823-551.219  30.279   9.483   8.933  -0.346  64.264

-208.956  -1.095 214.354 391.974  16.100  11.337   8.134   2.141  12.749   7.172

  -0.896   7.640  -1.625  -0.120   5.796  -0.486   0.686   2.938  -0.260  -0.018

 -21.863  20.679   0.825 -22.132 -25.039   0.604  -4.426  -2.680  -1.104   1.959

  -2.857  -2.221   2.028  -2.739   2.342  -3.750   3.810   8.038   0.070  -0.751

  -4.413   0.838  -0.233   8.645   2.063  -0.977  -7.695   0.168  -0.078   4.454

  -4.148   1.825   5.563  -4.346   1.780  -4.876  -2.201   0.898  -5.277  -3.725

   2.270   4.115   2.735   3.146  -8.971   6.156  -2.190   3.060  -3.286  -1.983

  -1.860  -5.958   0.191   3.400  10.810 -19.003   0.719 -30.565  25.135  -4.414

  -2.749  -0.440   1.163  -3.788   0.721  -0.508  -6.078   0.715   0.206  -5.784

   0.291  -0.234  -6.694  -0.115  -0.128   7.223  15.277  -0.099   5.643  -1.519

   0.515   5.789  -1.627  -0.076   7.978  16.006  -0.151   5.293  -2.141   0.606

   5.502  -2.341  -0.517  -7.426   1.204  -3.427
       HoF         ACTUAL,  PREDICTED ENERGY CHANGE, RATIO
   130.0443165    53.9695315         -12.7638897   -4.2282982
 UNACCEPTABLE RATIO, REJECTING STEP, REDUCING DMAX TO 0.0125
  MIN SEARCH, CORRECT HESSIAN, TRYING PURE NR STEP
 LAMBDA THAT MINIMIZES ALONG ALL MODES =        0.000000000
 PURE NR-STEP HAS LENGTH   1.21014
 LAMBDA THAT MINIMIZES ALONG ALL MODES =     -328.482466314
 P-RFO-STEP   HAS LENGTH   0.64705
 LAMBDA THAT MINIMIZES ALONG ALL MODES =   -40844.107529163
 QA/TRIM-STEP HAS LENGTH   0.01250

  HEAT OF FORMATION        84.962712334818207    
 PARAMETERS        0.000  -0.002   0.001   6.456  -0.001   0.001   2.702   0.962
   0.000   7.184   1.812   3.349   2.949   0.351   0.444   1.547   2.668   0.409

   1.544   2.005   4.146   1.539   1.007   1.615   1.539   1.009   5.327   1.483

   1.240   1.279   1.485   1.045   5.319   1.558   1.988   5.248   1.220   0.695

   3.216   1.497   1.829   4.092   1.368   1.959   0.069   1.484   2.953   5.968

   1.394   2.214   3.186   1.394   2.125   3.113   1.513   1.974   4.626   1.360

   0.116   2.993   1.359   1.078   0.014   1.405   2.107   5.217   1.406   2.095

   2.083   1.398   2.098   3.145   1.397   2.100   3.138   1.397   2.096   6.282

   1.380   2.309   3.179   1.380   3.005   2.952   1.112   1.720   3.471   1.113

   1.904   6.269   1.113   1.886   2.029   1.112   1.930   1.143   1.112   1.923

   2.593   1.113   1.918   4.674   1.112   1.920   1.609   1.110   1.931   3.702

   1.115   1.927   4.385   1.113   1.924   2.306   1.114   1.924   2.003   1.112

   1.929   4.084   1.110   1.968   6.105   1.111   1.931   1.985   1.115   1.911

   0.488   1.113   1.917   2.536   1.082   2.079   0.024   1.082   2.085   3.145

   1.082   2.104   0.000   1.083   2.105   6.279   1.082   2.094   3.142   1.083

   2.093   3.141   1.082   2.093   3.142   1.109   1.903   3.109   1.110   1.926

   5.190   1.111   1.922   1.032   1.109   1.903   0.214   1.110   1.925   2.295

   1.111   1.922   4.421   1.048   1.412   3.252
 GRADIENT         -0.000  -0.000  -0.000-139.625   0.000   0.000  69.642-157.955
   0.000   6.666 396.743  10.717  41.5141631.017 -57.229 -24.8181227.374-212.820

  97.900-580.511-182.848   4.303 -15.154  14.287   4.651  -8.226  -9.076 -32.847

 -23.488   6.416 -28.304 -14.690  -0.464 193.119-438.972 581.124  19.929  50.821

  -6.703  42.420 789.711 -22.440-124.837 412.104  10.308 -29.738   0.053   2.545

 -10.714-106.415  -5.899  57.665-196.228   1.310   9.913   8.950  -0.340  29.138

-135.794  -1.119  68.344 106.377  -2.702  13.352   2.592   2.142  16.204   1.734

  -0.894   7.461   1.477  -0.052   7.354   5.083   0.801   2.401   2.248   0.059

 -22.049  23.075   0.698 -21.914 -25.736   0.713  -4.199  -3.081  -1.101   1.865

  -3.020  -2.268   2.128  -2.630   2.463  -3.445   3.759   5.875   0.606  -0.971

  -4.013   1.506  -0.688   7.951   2.318  -1.171  -7.390   0.195  -0.024   4.556

  -3.169   0.903   4.346  -3.882   1.278  -4.590  -1.687   0.434  -4.332  -4.244

   2.585   4.988   2.601   2.793  -9.127   6.026  -2.640   3.122  -3.304  -1.986

  -1.834  -6.015   0.172   3.377   5.550 -12.450   0.496 -15.252   9.786  -1.455

  -2.713  -0.303   1.169  -3.776   0.797  -0.513  -5.945   0.599   0.220  -5.764

   0.303  -0.231  -6.635  -0.167  -0.117   7.438  15.512  -0.101   5.863  -1.647

   0.420   5.906  -1.787  -0.156   8.109  15.947  -0.152   5.438  -1.941   0.475

   5.690  -2.155  -0.324  -7.631   1.128  -3.387
       HoF         ACTUAL,  PREDICTED ENERGY CHANGE, RATIO
    84.9627123     8.8879273          -6.4220384   -1.3839729
 UNACCEPTABLE RATIO, REJECTING STEP, REDUCING DMAX TO 0.0062
  MIN SEARCH, CORRECT HESSIAN, TRYING PURE NR STEP
 LAMBDA THAT MINIMIZES ALONG ALL MODES =        0.000000000
 PURE NR-STEP HAS LENGTH   1.21014
 LAMBDA THAT MINIMIZES ALONG ALL MODES =     -328.482466314
 P-RFO-STEP   HAS LENGTH   0.64705
 LAMBDA THAT MINIMIZES ALONG ALL MODES =   -82201.919367295
 QA/TRIM-STEP HAS LENGTH   0.00625

  HEAT OF FORMATION        76.519491958635626    
 PARAMETERS        0.000  -0.001   0.000   6.456  -0.000   0.000   2.702   0.963
   0.000   7.185   1.813   3.349   2.949   0.347   0.443   1.547   2.666   0.410

   1.544   2.006   4.147   1.539   1.007   1.615   1.539   1.009   5.327   1.483

   1.240   1.279   1.485   1.045   5.319   1.557   1.988   5.248   1.221   0.695

   3.215   1.497   1.827   4.092   1.368   1.959   0.069   1.484   2.953   5.968

   1.394   2.214   3.186   1.394   2.126   3.113   1.513   1.974   4.626   1.360

   0.115   2.992   1.359   1.078   0.014   1.405   2.107   5.217   1.406   2.096

   2.083   1.398   2.099   3.145   1.398   2.100   3.138   1.397   2.096   6.282

   1.380   2.309   3.180   1.380   3.005   2.952   1.112   1.720   3.471   1.113

   1.904   6.269   1.113   1.886   2.029   1.112   1.930   1.143   1.112   1.924

   2.593   1.113   1.918   4.674   1.112   1.920   1.609   1.110   1.931   3.702

   1.115   1.927   4.385   1.113   1.924   2.306   1.114   1.925   2.003   1.112

   1.929   4.084   1.110   1.968   6.105   1.111   1.931   1.985   1.115   1.911

   0.488   1.113   1.917   2.536   1.082   2.079   0.024   1.082   2.085   3.145

   1.082   2.104   0.001   1.083   2.105   6.279   1.082   2.094   3.142   1.083

   2.093   3.141   1.082   2.093   3.142   1.109   1.903   3.109   1.110   1.926

   5.190   1.111   1.922   1.032   1.109   1.903   0.214   1.110   1.925   2.295

   1.111   1.922   4.421   1.048   1.412   3.252
 GRADIENT         -0.000  -0.000  -0.000 -34.701   0.000   0.000  25.884 -46.327
   0.000  15.806 241.688   3.944  -8.861 566.986 -31.387 -11.483 448.846 -55.830

  26.444-226.988 -46.687   3.275 -10.798  11.277   5.260  -7.979  -8.179 -34.042

 -17.309   4.729 -28.596 -14.598   0.438  56.521-184.132 242.761  45.042  33.908

  -3.459 -20.995 289.659   0.286 -65.562 131.508   5.470 -29.963   0.014   2.581

 -10.394 -67.770  -2.830  14.010 -66.574  -1.374  10.130   8.966  -0.335  16.568

 -97.815  -1.121  26.379   6.354  -3.278  14.381  -0.198   2.137  17.938  -1.013

  -0.897   7.366   3.038  -0.015   8.150   7.889   0.859   2.124   3.512   0.097

 -22.141  24.111   0.663 -21.837 -25.970   0.756  -4.087  -3.294  -1.101   1.828

  -3.085  -2.300   2.182  -2.590   2.519  -3.200   3.667   4.697   0.873  -1.074

  -3.819   1.837  -0.919   7.603   2.449  -1.272  -7.229   0.208   0.001   4.610

  -2.693   0.452   3.747  -3.653   1.033  -4.447  -1.431   0.199  -3.860  -4.503

   2.742   5.431   2.537   2.598  -9.192   5.962  -2.869   3.146  -3.313  -1.988

  -1.820  -6.043   0.163   3.364   2.610  -8.777   0.183  -9.136   3.245  -0.526

  -2.695  -0.234   1.171  -3.769   0.835  -0.516  -5.877   0.541   0.227  -5.752

   0.308  -0.229  -6.604  -0.193  -0.112   7.537  15.605  -0.102   5.961  -1.694

   0.380   5.965  -1.839  -0.179   8.164  15.899  -0.151   5.507  -1.842   0.414

   5.778  -2.063  -0.234  -7.734   1.092  -3.367
       HoF         ACTUAL,  PREDICTED ENERGY CHANGE, RATIO
    76.5194920     0.4447069          -3.2210625   -0.1380622
 UNACCEPTABLE RATIO, REJECTING STEP, REDUCING DMAX TO 0.0031
  MIN SEARCH, CORRECT HESSIAN, TRYING PURE NR STEP
 LAMBDA THAT MINIMIZES ALONG ALL MODES =        0.000000000
 PURE NR-STEP HAS LENGTH   1.21014
 LAMBDA THAT MINIMIZES ALONG ALL MODES =     -328.482466314
 P-RFO-STEP   HAS LENGTH   0.64705
 LAMBDA THAT MINIMIZES ALONG ALL MODES =  -164918.314301441
 QA/TRIM-STEP HAS LENGTH   0.00312

  HEAT OF FORMATION        75.358902585634496    
 PARAMETERS        0.000  -0.001   0.000   6.456  -0.000   0.000   2.702   0.963
   0.000   7.185   1.813   3.349   2.948   0.345   0.443   1.548   2.665   0.411

   1.544   2.006   4.147   1.539   1.007   1.615   1.539   1.009   5.327   1.483

   1.241   1.279   1.484   1.045   5.319   1.557   1.988   5.247   1.221   0.695

   3.215   1.496   1.826   4.092   1.368   1.959   0.069   1.484   2.953   5.968

   1.394   2.214   3.186   1.394   2.126   3.113   1.514   1.974   4.626   1.360

   0.115   2.992   1.359   1.078   0.014   1.406   2.107   5.217   1.406   2.096

   2.083   1.399   2.099   3.145   1.398   2.100   3.138   1.397   2.096   6.282

   1.379   2.310   3.180   1.379   3.005   2.952   1.112   1.720   3.471   1.113

   1.904   6.269   1.113   1.886   2.029   1.112   1.931   1.143   1.112   1.924

   2.593   1.113   1.918   4.674   1.112   1.920   1.609   1.110   1.931   3.702

   1.115   1.927   4.385   1.113   1.924   2.306   1.114   1.925   2.003   1.112

   1.929   4.084   1.110   1.968   6.104   1.111   1.932   1.985   1.114   1.911

   0.488   1.113   1.917   2.536   1.082   2.079   0.024   1.082   2.085   3.145

   1.082   2.104   0.001   1.083   2.105   6.279   1.082   2.094   3.142   1.083

   2.093   3.141   1.082   2.093   3.142   1.109   1.903   3.109   1.111   1.926

   5.190   1.111   1.922   1.032   1.109   1.903   0.214   1.111   1.925   2.295

   1.111   1.922   4.421   1.048   1.412   3.252
 GRADIENT         -0.000  -0.000  -0.000   6.973   0.000   0.000   8.059  -4.491
   0.000  16.386 162.987   1.944 -27.948  75.734 -22.550  -1.461  92.000  16.105

  -2.952 -64.620  16.983   2.770  -8.666   9.795   5.575  -7.875  -7.725 -34.614

 -14.274   3.882 -28.742 -14.557   0.903  -5.456 -66.641  86.275  59.237  22.517

  -1.889 -46.039  66.943   5.480 -38.878  12.697   1.279 -30.076   0.002   2.595

  -8.988 -47.234  -1.632  -0.999 -13.428  -1.013  10.240   8.969  -0.336  11.218

 -77.901  -1.086  11.459 -32.845  -2.409  14.885  -1.579   2.135  18.808  -2.367

  -0.898   7.332   3.811   0.003   8.537   9.274   0.887   1.999   4.134   0.116

 -22.212  24.655   0.663 -21.791 -26.059   0.778  -4.032  -3.395  -1.101   1.814

  -3.123  -2.316   2.209  -2.566   2.548  -3.059   3.597   4.091   1.005  -1.127

  -3.718   2.000  -1.030   7.434   2.515  -1.320  -7.153   0.214   0.017   4.635

  -2.460   0.231   3.454  -3.540   0.912  -4.378  -1.305   0.083  -3.627  -4.632

   2.819   5.651   2.509   2.513  -9.229   5.934  -2.979   3.159  -3.318  -1.988

  -1.813  -6.057   0.158   3.359   1.047  -6.863  -0.020  -6.475   0.270  -0.170

  -2.685  -0.200   1.172  -3.765   0.854  -0.518  -5.843   0.511   0.230  -5.746

   0.311  -0.229  -6.588  -0.206  -0.109   7.596  15.654  -0.103   6.010  -1.739

   0.367   5.999  -1.879  -0.191   8.188  15.860  -0.150   5.545  -1.782   0.386

   5.823  -2.018  -0.193  -7.786   1.072  -3.357
       HoF         ACTUAL,  PREDICTED ENERGY CHANGE, RATIO
    75.3589026    -0.7158825          -1.6130446    0.4438082
     STEPSIZE USED IS  0.00312
 CALCULATED STEP
     0.000044 -0.000516  0.000171 -0.000211 -0.000180  0.000162  0.000037 -0.000552
     0.000078 -0.000135 -0.000364 -0.000010  0.000289  0.002076  0.000214 -0.000141
     0.001133 -0.000576  0.000128 -0.000580 -0.000486 -0.000019 -0.000209  0.000015
    -0.000036  0.000095  0.000109  0.000196 -0.000210  0.000029  0.000172  0.000133
     0.000054  0.000339 -0.000224  0.000360 -0.000439 -0.000189  0.000093  0.000369
     0.000791 -0.000047  0.000035  0.000186  0.000012  0.000094  0.000097 -0.000106
    -0.000016  0.000029 -0.000027  0.000020 -0.000332 -0.000025 -0.000108 -0.000063
    -0.000010 -0.000003  0.000203  0.000144 -0.000011  0.000012  0.000066 -0.000143
     0.000052 -0.000035 -0.000173 -0.000195 -0.000016 -0.000097 -0.000160 -0.000022
    -0.000107 -0.000198 -0.000027 -0.000060  0.000090 -0.000022  0.000072 -0.000283
    -0.000043  0.000037  0.000009 -0.000099  0.000014 -0.000013  0.000009 -0.000022
     0.000049  0.000012 -0.000026 -0.000053 -0.000017  0.000004 -0.000110 -0.000023
    -0.000020 -0.000048  0.000020 -0.000025  0.000000 -0.000046 -0.000029 -0.000069
     0.000041 -0.000014 -0.000029 -0.000031  0.000001 -0.000013 -0.000021  0.000007
    -0.000066  0.000024 -0.000006 -0.000068  0.000018  0.000016 -0.000038 -0.000038
    -0.000027  0.000012  0.000053 -0.000049 -0.000050 -0.000022  0.000006 -0.000092
     0.000009  0.000023 -0.000057 -0.000022 -0.000013 -0.000085 -0.000004  0.000009
    -0.000027 -0.000007 -0.000000 -0.000114 -0.000013  0.000008  0.000025 -0.000003
     0.000020 -0.000046 -0.000007  0.000019 -0.000045 -0.000005  0.000024 -0.000041
    -0.000005 -0.000059 -0.000138 -0.000001 -0.000049  0.000016 -0.000004 -0.000050
    -0.000080 -0.000001 -0.000063 -0.000206 -0.000001 -0.000047 -0.000051 -0.000004
    -0.000048 -0.000001 -0.000001  0.000041 -0.000047  0.000030
     NEW TRUST RADIUS =  0.00312

     HESSIAN IS BEING UPDATED USING THE BFGS UPDATE

*REMARK   3 HET = Not identified; C 24 H 30 N O 3    =    58 atoms res:    1
 PM7 CHARGE=+1 EF NOXYZ PRNT=2 PDBOUT COMPFG GRAPHF
 3152

  O(HETATM    1  O1  HET A   1)   0.00004365 +1   -0.0005164 +1    0.0001712 +1
  O(HETATM    2  O2  HET A   1)   6.45644140 +1   -0.0102854 +1    0.0092613 +1     1     0     0
  O(HETATM    3  O3  HET A   1)   2.70153529 +1   55.1960019 +1    0.0044688 +1     2     1     0
  N(HETATM    4  N   HET A   1)   7.18466909 +1  103.8840136 +1 -168.1265950 +1     1     2     3
  C(HETATM    5  C1  HET A   1)   2.94829562 +1   19.7771744 +1   25.3827494 +1     4     1     2
  C(HETATM    6  C2  HET A   1)   1.54753856 +1  152.6677498 +1   23.5344422 +1     5     4     1
  C(HETATM    7  C3  HET A   1)   1.54376211 +1  114.9550627 +1 -122.3827329 +1     6     5     4
  C(HETATM    8  C4  HET A   1)   1.53865478 +1   57.7043612 +1   92.5397239 +1     5     4     1
  C(HETATM    9  C5  HET A   1)   1.53879663 +1   57.8074458 +1  -54.7774834 +1     5     4     1
  C(HETATM   10  C6  HET A   1)   1.48262751 +1   71.0789596 +1   73.2617746 +1     4     1     2
  C(HETATM   11  C7  HET A   1)   1.48442263 +1   59.8643459 +1  -55.2543097 +1     4     1     2
  C(HETATM   12  C8  HET A   1)   1.55677914 +1  113.9175226 +1  -59.3549630 +1     7     6     5
  C(HETATM   13  C9  HET A   1)   1.22103039 +1   39.8273611 +1 -175.7738935 +1     1     2     3
  C(HETATM   14  C10 HET A   1)   1.49630139 +1  104.6491118 +1 -125.5227421 +1    12     7     6
  C(HETATM   15  C11 HET A   1)   1.36838055 +1  112.2370786 +1    3.9461011 +1    14    12     7
  C(HETATM   16  C12 HET A   1)   1.48410330 +1  169.1684077 +1  -18.0521157 +1     4     1     2
  C(HETATM   17  C13 HET A   1)   1.39394783 +1  126.8758021 +1 -177.4784594 +1    14    12     7
  C(HETATM   18  C14 HET A   1)   1.39350223 +1  121.8226435 +1  178.3820492 +1    15    14    12
  C(HETATM   19  C15 HET A   1)   1.51354736 +1  113.1088456 +1  -94.9243278 +1    16     4     1
  C(HETATM   20  C16 HET A   1)   1.35953417 +1    6.6004226 +1  171.4369956 +1     2     1     3
  C(HETATM   21  C17 HET A   1)   1.35899322 +1   61.7895261 +1    0.7847864 +1     3     2     1
  C(HETATM   22  C18 HET A   1)   1.40550774 +1  120.7367583 +1  -61.0784812 +1    19    16     4
  C(HETATM   23  C19 HET A   1)   1.40610039 +1  120.0777065 +1  119.3393841 +1    19    16     4
  C(HETATM   24  C20 HET A   1)   1.39855722 +1  120.2579232 +1 -179.8069061 +1    22    19    16
  C(HETATM   25  C21 HET A   1)   1.39764136 +1  120.3379374 +1  179.7731894 +1    23    19    16
  C(HETATM   26  C22 HET A   1)   1.39677705 +1  120.0884425 +1   -0.0430503 +1    25    23    19
  C(HETATM   27  C23 HET A   1)   1.37948710 +1  132.3282979 +1 -177.8242283 +1     2     1     3
  C(HETATM   28  C24 HET A   1)   1.37947621 +1  172.1531611 +1  169.1269991 +1     3     2     1
  H(HETATM   29  H1  HET A   1)   1.11214775 +1   98.5598619 +1 -161.1547093 +1     5     4     1
  H(HETATM   30 1H2  HET A   1)   1.11284255 +1  109.0886058 +1   -0.8026453 +1     6     5     4
  H(HETATM   31 2H2  HET A   1)   1.11316960 +1  108.0769812 +1  116.2559467 +1     6     5     4
  H(HETATM   32  H3  HET A   1)   1.11158868 +1  110.6121883 +1   65.4646308 +1     7     6     5
  H(HETATM   33 1H4  HET A   1)   1.11188195 +1  110.2117221 +1  148.5620826 +1     8     5     4
  H(HETATM   34 2H4  HET A   1)   1.11311461 +1  109.9111443 +1  -92.1820091 +1     8     5     4
  H(HETATM   35 1H5  HET A   1)   1.11243792 +1  109.9953412 +1   92.2021766 +1     9     5     4
  H(HETATM   36 2H5  HET A   1)   1.10996879 +1  110.6169076 +1 -147.8696728 +1     9     5     4
  H(HETATM   37 1H6  HET A   1)   1.11462285 +1  110.3906751 +1 -108.7828774 +1    10     4     1
  H(HETATM   38 2H6  HET A   1)   1.11343135 +1  110.2257274 +1  132.1098439 +1    10     4     1
  H(HETATM   39 1H7  HET A   1)   1.11434967 +1  110.2730728 +1  114.7649620 +1    11     4     1
  H(HETATM   40 2H7  HET A   1)   1.11202297 +1  110.5415946 +1 -126.0210607 +1    11     4     1
  H(HETATM   41 1H8  HET A   1)   1.11046856 +1  112.7400734 +1  -10.2390598 +1    12     7     6
  H(HETATM   42 2H8  HET A   1)   1.11104187 +1  110.6692497 +1  113.7125410 +1    12     7     6
  H(HETATM   43 1H12 HET A   1)   1.11449821 +1  109.5093122 +1   27.9814513 +1    16     4     1
  H(HETATM   44 2H12 HET A   1)   1.11342546 +1  109.8257473 +1  145.2780038 +1    16     4     1
  H(HETATM   45  H13 HET A   1)   1.08168923 +1  119.1371771 +1    1.3977564 +1    17    14    12
  H(HETATM   46  H14 HET A   1)   1.08173337 +1  119.4823307 +1 -179.7988519 +1    18    15    14
  H(HETATM   47  H18 HET A   1)   1.08236460 +1  120.5711396 +1    0.0298590 +1    22    19    16
  H(HETATM   48  H19 HET A   1)   1.08298647 +1  120.6038508 +1   -0.2619663 +1    23    19    16
  H(HETATM   49  H20 HET A   1)   1.08229278 +1  119.9778590 +1 -179.9843849 +1    24    22    19
  H(HETATM   50  H21 HET A   1)   1.08257039 +1  119.9220646 +1  179.9759725 +1    25    23    19
  H(HETATM   51  H22 HET A   1)   1.08223840 +1  119.9470250 +1 -179.9738463 +1    26    25    23
  H(HETATM   52 1H23 HET A   1)   1.10915010 +1  109.0412544 +1  178.1396245 +1    27     2     1
  H(HETATM   53 2H23 HET A   1)   1.11054021 +1  110.3357144 +1  -62.6261989 +1    27     2     1
  H(HETATM   54 3H23 HET A   1)   1.11112287 +1  110.1196279 +1   59.1509954 +1    27     2     1
  H(HETATM   55 1H24 HET A   1)   1.10919370 +1  109.0459636 +1   12.2790848 +1    28     3     2
  H(HETATM   56 2H24 HET A   1)   1.11053002 +1  110.3132697 +1  131.5108632 +1    28     3     2
  H(HETATM   57 3H24 HET A   1)   1.11111512 +1  110.1363249 +1 -106.7085132 +1    28     3     2
  H(HETATM   58  H   HET A   1)   1.04797695 +1   80.9034650 +1 -173.6815425 +1     4     1     2

 XPARAM 
  1  1    0.0000  1  2   -0.0005  1  3    0.0002  2  1    6.4564  2  2   -0.0002
  2  3    0.0002  3  1    2.7015  3  2    0.9634  3  3    0.0001  4  1    7.1847
  4  2    1.8131  4  3    3.3488  5  1    2.9483  5  2    0.3452  5  3    0.4430
  6  1    1.5475  6  2    2.6646  6  3    0.4108  7  1    1.5438  7  2    2.0063
  7  3    4.1472  8  1    1.5387  8  2    1.0071  8  3    1.6151  9  1    1.5388
  9  2    1.0089  9  3    5.3271 10  1    1.4826 10  2    1.2406 10  3    1.2787
 11  1    1.4844 11  2    1.0448 11  3    5.3188 12  1    1.5568 12  2    1.9882
 12  3    5.2472 13  1    1.2210 13  2    0.6951 13  3    3.2154 14  1    1.4963
 14  2    1.8265 14  3    4.0924 15  1    1.3684 15  2    1.9589 15  3    0.0689
 16  1    1.4841 16  2    2.9525 16  3    5.9681 17  1    1.3939 17  2    2.2144
 17  3    3.1856 18  1    1.3935 18  2    2.1262 18  3    3.1134 19  1    1.5135
 19  2    1.9741 19  3    4.6264 20  1    1.3595 20  2    0.1152 20  3    2.9921
 21  1    1.3590 21  2    1.0784 21  3    0.0137 22  1    1.4055 22  2    2.1073
 22  3    5.2172 23  1    1.4061 23  2    2.0958 23  3    2.0829 24  1    1.3986
 24  2    2.0989 24  3    3.1450 25  1    1.3976 25  2    2.1003 25  3    3.1376
 26  1    1.3968 26  2    2.0959 26  3    6.2824 27  1    1.3795 27  2    2.3096
 27  3    3.1796 28  1    1.3795 28  2    3.0046 28  3    2.9518 29  1    1.1121
 29  2    1.7202 29  3    3.4705 30  1    1.1128 30  2    1.9040 30  3    6.2692
 31  1    1.1132 31  2    1.8863 31  3    2.0290 32  1    1.1116 32  2    1.9305
 32  3    1.1426 33  1    1.1119 33  2    1.9236 33  3    2.5929 34  1    1.1131
 34  2    1.9183 34  3    4.6743 35  1    1.1124 35  2    1.9198 35  3    1.6092
 36  1    1.1100 36  2    1.9306 36  3    3.7024 37  1    1.1146 37  2    1.9267
 37  3    4.3846 38  1    1.1134 38  2    1.9238 38  3    2.3058 39  1    1.1143
 39  2    1.9246 39  3    2.0030 40  1    1.1120 40  2    1.9293 40  3    4.0837
 41  1    1.1105 41  2    1.9677 41  3    6.1045 42  1    1.1110 42  2    1.9315
 42  3    1.9847 43  1    1.1145 43  2    1.9113 43  3    0.4884 44  1    1.1134
 44  2    1.9168 44  3    2.5356 45  1    1.0817 45  2    2.0793 45  3    0.0244
 46  1    1.0817 46  2    2.0854 46  3    3.1451 47  1    1.0824 47  2    2.1044
 47  3    0.0005 48  1    1.0830 48  2    2.1049 48  3    6.2786 49  1    1.0823
 49  2    2.0940 49  3    3.1419 50  1    1.0826 50  2    2.0930 50  3    3.1412
 51  1    1.0822 51  2    2.0935 51  3    3.1420 52  1    1.1092 52  2    1.9031
 52  3    3.1091 53  1    1.1105 53  2    1.9257 53  3    5.1902 54  1    1.1111
 54  2    1.9220 54  3    1.0324 55  1    1.1092 55  2    1.9032 55  3    0.2143
 56  1    1.1105 56  2    1.9253 56  3    2.2953 57  1    1.1111 57  2    1.9222
 57  3    4.4208 58  1    1.0480 58  2    1.4120 58  3    3.2519
 grad
      -0.00001   -0.00000   -0.00000    6.97334    0.00000    0.00000    8.05866   -4.49087
       0.00000   16.38629  162.98712    1.94420  -27.94788   75.73441  -22.54971   -1.46141
      91.99963   16.10480   -2.95199  -64.62005   16.98254    2.77042   -8.66564    9.79471
       5.57535   -7.87505   -7.72547  -34.61367  -14.27426    3.88162  -28.74167  -14.55697
       0.90288   -5.45567  -66.64147   86.27548   59.23670   22.51693   -1.88923  -46.03850
      66.94348    5.47950  -38.87783   12.69729    1.27893  -30.07579    0.00153    2.59454
      -8.98760  -47.23434   -1.63182   -0.99876  -13.42764   -1.01292   10.23950    8.96901
      -0.33611   11.21754  -77.90082   -1.08603   11.45931  -32.84497   -2.40866   14.88517
      -1.57853    2.13486   18.80794   -2.36666   -0.89802    7.33172    3.81144    0.00332
       8.53695    9.27353    0.88736    1.99920    4.13394    0.11571  -22.21239   24.65454
       0.66326  -21.79063  -26.05877    0.77796   -4.03154   -3.39520   -1.10076    1.81364
      -3.12255   -2.31581    2.20867   -2.56618    2.54833   -3.05939    3.59681    4.09091
       1.00460   -1.12740   -3.71845    1.99955   -1.02967    7.43385    2.51481   -1.32019
      -7.15309    0.21433    0.01708    4.63523   -2.45978    0.23052    3.45412   -3.54036
       0.91186   -4.37769   -1.30508    0.08288   -3.62706   -4.63201    2.81896    5.65109
       2.50855    2.51325   -9.22868    5.93415   -2.97850    3.15891   -3.31817   -1.98848
      -1.81346   -6.05725    0.15758    3.35860    1.04738   -6.86335   -0.02042   -6.47539
       0.26968   -0.17042   -2.68505   -0.19981    1.17216   -3.76549    0.85378   -0.51770
      -5.84264    0.51142    0.22994   -5.74638    0.31102   -0.22884   -6.58839   -0.20605
      -0.10896    7.59642   15.65405   -0.10295    6.01023   -1.73898    0.36677    5.99942
      -1.87932   -0.19096    8.18760   15.85968   -0.15011    5.54452   -1.78233    0.38589
       5.82329   -2.01769   -0.19282   -7.78556    1.07185   -3.35650
 CYCLE:     2 TIME:   0.305 TIME LEFT:  2.00D  GRAD.:   299.994 HEAT:  75.35890

          HESSIAN HAS  0 NEGATIVE EIGENVALUE(S)
  MIN SEARCH, CORRECT HESSIAN, TRYING PURE NR STEP
 LAMBDA THAT MINIMIZES ALONG ALL MODES =        0.000000000
 PURE NR-STEP HAS LENGTH   0.60159
 LAMBDA THAT MINIMIZES ALONG ALL MODES =      -90.229254304
 P-RFO-STEP   HAS LENGTH   0.45384
 LAMBDA THAT MINIMIZES ALONG ALL MODES =   -68663.005346004
 QA/TRIM-STEP HAS LENGTH   0.00312

  HEAT OF FORMATION        74.755172723947908    
 PARAMETERS        0.000  -0.001   0.000   6.456   0.001   0.000   2.701   0.963
   0.000   7.184   1.812   3.349   2.949   0.346   0.443   1.547   2.664   0.410

   1.544   2.007   4.147   1.539   1.007   1.615   1.539   1.009   5.327   1.483

   1.241   1.279   1.485   1.045   5.319   1.557   1.989   5.246   1.220   0.695

   3.215   1.497   1.826   4.092   1.369   1.959   0.069   1.484   2.953   5.968

   1.394   2.215   3.186   1.393   2.126   3.113   1.513   1.974   4.626   1.360

   0.116   2.992   1.359   1.079   0.014   1.405   2.107   5.217   1.406   2.096

   2.083   1.398   2.099   3.145   1.397   2.100   3.138   1.397   2.096   6.282

   1.380   2.309   3.180   1.380   3.005   2.952   1.112   1.720   3.471   1.113

   1.904   6.269   1.113   1.886   2.029   1.112   1.930   1.143   1.112   1.924

   2.593   1.113   1.918   4.674   1.112   1.920   1.609   1.110   1.931   3.702

   1.115   1.927   4.385   1.113   1.924   2.306   1.114   1.925   2.003   1.112

   1.929   4.084   1.110   1.968   6.105   1.111   1.932   1.985   1.115   1.911

   0.488   1.113   1.917   2.536   1.082   2.079   0.024   1.082   2.085   3.145

   1.082   2.104   0.001   1.083   2.105   6.279   1.082   2.094   3.142   1.083

   2.093   3.141   1.082   2.093   3.142   1.109   1.903   3.109   1.110   1.926

   5.190   1.111   1.922   1.032   1.109   1.903   0.214   1.110   1.925   2.295

   1.111   1.922   4.421   1.048   1.412   3.252
 GRADIENT         -0.000  -0.000  -0.000   7.097   0.000   0.000   4.199  -4.540
   0.000   0.043  76.778   2.627 -12.634 -17.496  -5.057  15.549   1.880  26.187

   2.245   6.978  11.906   2.655  -8.281   9.610   5.326  -7.295  -7.475 -34.165

 -13.904   3.833 -28.359 -13.710   0.811 -11.012 -26.060  30.692  58.382  23.759

  -2.291 -31.770  16.427   9.859 -32.833  -2.757   1.338 -29.838   0.170   2.578

  -4.242 -26.244  -2.155  -2.471  -3.582  -1.312  10.017   8.913  -0.337  15.165

 -59.651  -0.774  11.349 -39.276  -2.546  13.714   2.054   2.171  16.605   1.318

  -0.808   7.549   1.957   0.018   7.439   5.509   0.902   2.402   2.246   0.149

 -22.201  24.422   0.659 -21.841 -25.870   0.770  -3.994  -3.416  -1.104   1.779

  -3.119  -2.297   2.122  -2.558   2.581  -3.206   3.657   4.331   0.979  -1.143

  -3.705   1.993  -1.058   7.379   2.495  -1.332  -7.117   0.221   0.007   4.600

  -2.408   0.260   3.432  -3.478   0.937  -4.350  -1.269   0.112  -3.628  -4.501

   2.792   5.538   2.536   2.492  -9.161   5.912  -3.007   3.103  -3.310  -1.955

  -1.823  -6.018   0.167   3.361  -0.227  -5.520   0.064  -5.710  -0.639  -0.227

  -2.725  -0.228   1.180  -3.778   0.818  -0.514  -5.918   0.573   0.241  -5.740

   0.286  -0.222  -6.648  -0.125  -0.102   7.534  15.625  -0.104   5.953  -1.784

   0.411   5.935  -1.915  -0.228   8.080  15.796  -0.149   5.479  -1.775   0.387

   5.760  -2.010  -0.195  -7.639   1.083  -3.349
       HoF         ACTUAL,  PREDICTED ENERGY CHANGE, RATIO
    74.7551727    -0.6037299          -0.7090614    0.8514493
     STEPSIZE USED IS  0.00312
 CALCULATED STEP
     0.000192 -0.000443  0.000128 -0.000010  0.000807 -0.000015 -0.000065  0.000048
     0.000050 -0.000311 -0.001191 -0.000086  0.000565  0.000366  0.000357 -0.000282
    -0.000478 -0.000393  0.000029  0.000437 -0.000374 -0.000009  0.000020 -0.000073
     0.000018  0.000075  0.000176  0.000483  0.000084  0.000009  0.000507  0.000163
     0.000051  0.000181  0.000608 -0.000777 -0.000785 -0.000413  0.000100  0.000665
    -0.000439 -0.000033  0.000329 -0.000030  0.000049  0.000221 -0.000037 -0.000003
    -0.000019  0.000525  0.000069 -0.000082 -0.000037  0.000061 -0.000222 -0.000184
     0.000055  0.000056  0.000963  0.000099 -0.000145  0.000414  0.000098 -0.000301
    -0.000036  0.000019 -0.000417 -0.000076  0.000063 -0.000229 -0.000155  0.000050
    -0.000248 -0.000236  0.000037 -0.000092 -0.000108  0.000048  0.000162 -0.000459
     0.000037  0.000035  0.000273  0.000024  0.000042  0.000009  0.000034 -0.000035
     0.000018  0.000051 -0.000064 -0.000010 -0.000020  0.000005 -0.000104 -0.000041
    -0.000045 -0.000028  0.000071 -0.000048 -0.000020 -0.000091 -0.000072 -0.000030
     0.000121 -0.000028 -0.000040 -0.000051  0.000014 -0.000039 -0.000032  0.000019
    -0.000059  0.000080 -0.000015 -0.000048  0.000069  0.000045 -0.000079 -0.000066
    -0.000049 -0.000064  0.000151 -0.000119 -0.000004 -0.000029  0.000006 -0.000026
     0.000043  0.000057 -0.000047 -0.000032 -0.000063  0.000035  0.000017  0.000051
    -0.000040  0.000018 -0.000015 -0.000056 -0.000001  0.000035 -0.000041  0.000024
     0.000048 -0.000051  0.000013  0.000047 -0.000048  0.000020  0.000059 -0.000041
     0.000018 -0.000136 -0.000269  0.000019 -0.000103 -0.000007  0.000012 -0.000125
    -0.000025  0.000020 -0.000160 -0.000286  0.000019 -0.000112 -0.000021  0.000011
    -0.000104 -0.000007  0.000020  0.000110 -0.000060  0.000068
     NEW TRUST RADIUS =  0.00442
*REMARK   3 HET = Not identified; C 24 H 30 N O 3    =    58 atoms res:    1
 PM7 CHARGE=+1 EF NOXYZ PRNT=2 PDBOUT COMPFG GRAPHF
 3152

  O(HETATM    1  O1  HET A   1)   0.00023535 +1   -0.0009593 +1    0.0002997 +1
  O(HETATM    2  O2  HET A   1)   6.45643121 +1    0.0359500 +1    0.0083834 +1     1     0     0
  O(HETATM    3  O3  HET A   1)   2.70146986 +1   55.1987283 +1    0.0073420 +1     2     1     0
  N(HETATM    4  N   HET A   1)   7.18435855 +1  103.8157725 +1 -168.1315100 +1     1     2     3
  C(HETATM    5  C1  HET A   1)   2.94886112 +1   19.7981283 +1   25.4032183 +1     4     1     2
  C(HETATM    6  C2  HET A   1)   1.54725662 +1  152.6403878 +1   23.5119534 +1     5     4     1
  C(HETATM    7  C3  HET A   1)   1.54379080 +1  114.9800871 +1 -122.4041520 +1     6     5     4
  C(HETATM    8  C4  HET A   1)   1.53864535 +1   57.7055154 +1   92.5355482 +1     5     4     1
  C(HETATM    9  C5  HET A   1)   1.53881504 +1   57.8117631 +1  -54.7673958 +1     5     4     1
  C(HETATM   10  C6  HET A   1)   1.48311073 +1   71.0837627 +1   73.2622617 +1     4     1     2
  C(HETATM   11  C7  HET A   1)   1.48492990 +1   59.8736841 +1  -55.2513798 +1     4     1     2
  C(HETATM   12  C8  HET A   1)   1.55696050 +1  113.9523581 +1  -59.3994829 +1     7     6     5
  C(HETATM   13  C9  HET A   1)   1.22024570 +1   39.8036986 +1 -175.7681919 +1     1     2     3
  C(HETATM   14  C10 HET A   1)   1.49696615 +1  104.6239830 +1 -125.5246586 +1    12     7     6
  C(HETATM   15  C11 HET A   1)   1.36870926 +1  112.2353816 +1    3.9488860 +1    14    12     7
  C(HETATM   16  C12 HET A   1)   1.48432416 +1  169.1662864 +1  -18.0523046 +1     4     1     2
  C(HETATM   17  C13 HET A   1)   1.39392897 +1  126.9058952 +1 -177.4745049 +1    14    12     7
  C(HETATM   18  C14 HET A   1)   1.39342036 +1  121.8205092 +1  178.3855481 +1    15    14    12
  C(HETATM   19  C15 HET A   1)   1.51332507 +1  113.0983095 +1  -94.9211914 +1    16     4     1
  C(HETATM   20  C16 HET A   1)   1.35959026 +1    6.6555858 +1  171.4426591 +1     2     1     3
  C(HETATM   21  C17 HET A   1)   1.35884795 +1   61.8132669 +1    0.7904299 +1     3     2     1
  C(HETATM   22  C18 HET A   1)   1.40520656 +1  120.7347143 +1  -61.0774066 +1    19    16     4
  C(HETATM   23  C19 HET A   1)   1.40568383 +1  120.0733738 +1  119.3429929 +1    19    16     4
  C(HETATM   24  C20 HET A   1)   1.39832810 +1  120.2490402 +1 -179.8040444 +1    22    19    16
  C(HETATM   25  C21 HET A   1)   1.39739333 +1  120.3244083 +1  179.7753129 +1    23    19    16
  C(HETATM   26  C22 HET A   1)   1.39668527 +1  120.0822464 +1   -0.0402779 +1    25    23    19
  C(HETATM   27  C23 HET A   1)   1.37964867 +1  132.3020182 +1 -177.8220903 +1     2     1     3
  C(HETATM   28  C24 HET A   1)   1.37951118 +1  172.1688242 +1  169.1283886 +1     3     2     1
  H(HETATM   29  H1  HET A   1)   1.11218982 +1   98.5603649 +1 -161.1527681 +1     5     4     1
  H(HETATM   30 1H2  HET A   1)   1.11280733 +1  109.0896356 +1   -0.7997400 +1     6     5     4
  H(HETATM   31 2H2  HET A   1)   1.11310599 +1  108.0763866 +1  116.2548004 +1     6     5     4
  H(HETATM   32  H3  HET A   1)   1.11159345 +1  110.6062551 +1   65.4622961 +1     7     6     5
  H(HETATM   33 1H4  HET A   1)   1.11183669 +1  110.2100972 +1  148.5661310 +1     8     5     4
  H(HETATM   34 2H4  HET A   1)   1.11306670 +1  109.9100172 +1  -92.1871982 +1     8     5     4
  H(HETATM   35 1H5  HET A   1)   1.11236587 +1  109.9936090 +1   92.2090891 +1     9     5     4
  H(HETATM   36 2H5  HET A   1)   1.10994105 +1  110.6146183 +1 -147.8725664 +1     9     5     4
  H(HETATM   37 1H6  HET A   1)   1.11463689 +1  110.3884465 +1 -108.7847361 +1    10     4     1
  H(HETATM   38 2H6  HET A   1)   1.11344992 +1  110.2223485 +1  132.1144457 +1    10     4     1
  H(HETATM   39 1H7  HET A   1)   1.11433434 +1  110.2703010 +1  114.7689116 +1    11     4     1
  H(HETATM   40 2H7  HET A   1)   1.11206750 +1  110.5370813 +1 -126.0248328 +1    11     4     1
  H(HETATM   41 1H8  HET A   1)   1.11041941 +1  112.7363848 +1  -10.2304133 +1    12     7     6
  H(HETATM   42 2H8  HET A   1)   1.11092240 +1  110.6690006 +1  113.7108775 +1    12     7     6
  H(HETATM   43 1H12 HET A   1)   1.11450448 +1  109.5078273 +1   27.9839321 +1    16     4     1
  H(HETATM   44 2H12 HET A   1)   1.11348221 +1  109.8230375 +1  145.2761804 +1    16     4     1
  H(HETATM   45  H13 HET A   1)   1.08162667 +1  119.1391912 +1    1.3987499 +1    17    14    12
  H(HETATM   46  H14 HET A   1)   1.08178437 +1  119.4800662 +1 -179.7978219 +1    18    15    14
  H(HETATM   47  H18 HET A   1)   1.08234971 +1  120.5679434 +1    0.0298135 +1    22    19    16
  H(HETATM   48  H19 HET A   1)   1.08302181 +1  120.6014930 +1   -0.2606052 +1    23    19    16
  H(HETATM   49  H20 HET A   1)   1.08234111 +1  119.9749380 +1 -179.9836437 +1    24    22    19
  H(HETATM   50  H21 HET A   1)   1.08261745 +1  119.9193050 +1  179.9770962 +1    25    23    19
  H(HETATM   51  H22 HET A   1)   1.08229753 +1  119.9446961 +1 -179.9728226 +1    26    25    23
  H(HETATM   52 1H23 HET A   1)   1.10901405 +1  109.0258288 +1  178.1406867 +1    27     2     1
  H(HETATM   53 2H23 HET A   1)   1.11043743 +1  110.3352986 +1  -62.6255326 +1    27     2     1
  H(HETATM   54 3H23 HET A   1)   1.11099748 +1  110.1181979 +1   59.1521268 +1    27     2     1
  H(HETATM   55 1H24 HET A   1)   1.10903326 +1  109.0295952 +1   12.2801859 +1    28     3     2
  H(HETATM   56 2H24 HET A   1)   1.11041798 +1  110.3120841 +1  131.5115163 +1    28     3     2
  H(HETATM   57 3H24 HET A   1)   1.11101096 +1  110.1359171 +1 -106.7073884 +1    28     3     2
  H(HETATM   58  H   HET A   1)   1.04808700 +1   80.9000121 +1 -173.6776211 +1     4     1     2

 XPARAM 
  1  1    0.0002  1  2   -0.0010  1  3    0.0003  2  1    6.4564  2  2    0.0006
  2  3    0.0001  3  1    2.7015  3  2    0.9634  3  3    0.0001  4  1    7.1844
  4  2    1.8119  4  3    3.3487  5  1    2.9489  5  2    0.3455  5  3    0.4434
  6  1    1.5473  6  2    2.6641  6  3    0.4104  7  1    1.5438  7  2    2.0068
  7  3    4.1468  8  1    1.5386  8  2    1.0072  8  3    1.6150  9  1    1.5388
  9  2    1.0090  9  3    5.3273 10  1    1.4831 10  2    1.2406 10  3    1.2787
 11  1    1.4849 11  2    1.0450 11  3    5.3189 12  1    1.5570 12  2    1.9888
 12  3    5.2465 13  1    1.2202 13  2    0.6947 13  3    3.2155 14  1    1.4970
 14  2    1.8260 14  3    4.0924 15  1    1.3687 15  2    1.9589 15  3    0.0689
 16  1    1.4843 16  2    2.9525 16  3    5.9681 17  1    1.3939 17  2    2.2149
 17  3    3.1857 18  1    1.3934 18  2    2.1262 18  3    3.1134 19  1    1.5133
 19  2    1.9739 19  3    4.6265 20  1    1.3596 20  2    0.1162 20  3    2.9922
 21  1    1.3588 21  2    1.0788 21  3    0.0138 22  1    1.4052 22  2    2.1072
 22  3    5.2172 23  1    1.4057 23  2    2.0957 23  3    2.0829 24  1    1.3983
 24  2    2.0987 24  3    3.1450 25  1    1.3974 25  2    2.1001 25  3    3.1377
 26  1    1.3967 26  2    2.0958 26  3    6.2825 27  1    1.3796 27  2    2.3091
 27  3    3.1796 28  1    1.3795 28  2    3.0049 28  3    2.9518 29  1    1.1122
 29  2    1.7202 29  3    3.4705 30  1    1.1128 30  2    1.9040 30  3    6.2692
 31  1    1.1131 31  2    1.8863 31  3    2.0290 32  1    1.1116 32  2    1.9304
 32  3    1.1425 33  1    1.1118 33  2    1.9235 33  3    2.5930 34  1    1.1131
 34  2    1.9183 34  3    4.6742 35  1    1.1124 35  2    1.9198 35  3    1.6094
 36  1    1.1099 36  2    1.9306 36  3    3.7023 37  1    1.1146 37  2    1.9266
 37  3    4.3845 38  1    1.1134 38  2    1.9237 38  3    2.3058 39  1    1.1143
 39  2    1.9246 39  3    2.0031 40  1    1.1121 40  2    1.9292 40  3    4.0836
 41  1    1.1104 41  2    1.9676 41  3    6.1046 42  1    1.1109 42  2    1.9315
 42  3    1.9846 43  1    1.1145 43  2    1.9113 43  3    0.4884 44  1    1.1135
 44  2    1.9168 44  3    2.5355 45  1    1.0816 45  2    2.0794 45  3    0.0244
 46  1    1.0818 46  2    2.0853 46  3    3.1451 47  1    1.0823 47  2    2.1043
 47  3    0.0005 48  1    1.0830 48  2    2.1049 48  3    6.2786 49  1    1.0823
 49  2    2.0940 49  3    3.1419 50  1    1.0826 50  2    2.0930 50  3    3.1412
 51  1    1.0823 51  2    2.0934 51  3    3.1421 52  1    1.1090 52  2    1.9029
 52  3    3.1091 53  1    1.1104 53  2    1.9257 53  3    5.1902 54  1    1.1110
 54  2    1.9219 54  3    1.0324 55  1    1.1090 55  2    1.9029 55  3    0.2143
 56  1    1.1104 56  2    1.9253 56  3    2.2953 57  1    1.1110 57  2    1.9222
 57  3    4.4208 58  1    1.0481 58  2    1.4120 58  3    3.2519
 grad
      -0.00001   -0.00000   -0.00000    7.09683    0.00000    0.00000    4.19949   -4.53962
       0.00000    0.04266   76.77765    2.62745  -12.63368  -17.49582   -5.05736   15.54877
       1.88036   26.18731    2.24517    6.97758   11.90626    2.65494   -8.28108    9.61047
       5.32605   -7.29460   -7.47476  -34.16545  -13.90390    3.83257  -28.35874  -13.71010
       0.81148  -11.01218  -26.06000   30.69163   58.38173   23.75930   -2.29085  -31.77045
      16.42656    9.85930  -32.83260   -2.75689    1.33804  -29.83789    0.16974    2.57828
      -4.24234  -26.24432   -2.15457   -2.47135   -3.58209   -1.31195   10.01664    8.91311
      -0.33661   15.16544  -59.65083   -0.77437   11.34855  -39.27581   -2.54605   13.71437
       2.05399    2.17129   16.60548    1.31776   -0.80794    7.54886    1.95656    0.01760
       7.43927    5.50891    0.90176    2.40182    2.24558    0.14898  -22.20058   24.42214
       0.65941  -21.84113  -25.86971    0.77021   -3.99437   -3.41647   -1.10363    1.77940
      -3.11919   -2.29706    2.12230   -2.55837    2.58140   -3.20591    3.65679    4.33107
       0.97908   -1.14252   -3.70480    1.99305   -1.05753    7.37897    2.49498   -1.33157
      -7.11695    0.22058    0.00731    4.59974   -2.40752    0.25961    3.43243   -3.47766
       0.93661   -4.34991   -1.26921    0.11178   -3.62806   -4.50097    2.79209    5.53848
       2.53622    2.49233   -9.16094    5.91218   -3.00672    3.10300   -3.30954   -1.95535
      -1.82253   -6.01810    0.16662    3.36086   -0.22700   -5.51992    0.06378   -5.70988
      -0.63903   -0.22679   -2.72464   -0.22845    1.17986   -3.77811    0.81800   -0.51408
      -5.91804    0.57284    0.24150   -5.74034    0.28646   -0.22169   -6.64759   -0.12463
      -0.10163    7.53372   15.62463   -0.10370    5.95289   -1.78386    0.41123    5.93549
      -1.91483   -0.22840    8.07966   15.79613   -0.14941    5.47945   -1.77488    0.38728
       5.76023   -2.00977   -0.19471   -7.63868    1.08304   -3.34890
 CYCLE:     3 TIME:   0.039 TIME LEFT:  2.00D  GRAD.:   173.920 HEAT:  74.75517

          HESSIAN HAS  0 NEGATIVE EIGENVALUE(S)
  MIN SEARCH, CORRECT HESSIAN, TRYING PURE NR STEP
 LAMBDA THAT MINIMIZES ALONG ALL MODES =        0.000000000
 PURE NR-STEP HAS LENGTH   0.38219
 LAMBDA THAT MINIMIZES ALONG ALL MODES =      -41.880261327
 P-RFO-STEP   HAS LENGTH   0.33103
 LAMBDA THAT MINIMIZES ALONG ALL MODES =   -33860.018064732
 QA/TRIM-STEP HAS LENGTH   0.00442

  HEAT OF FORMATION        74.116990123744472    
 PARAMETERS        0.000  -0.002   0.001   6.456   0.001   0.000   2.701   0.963
   0.000   7.184   1.811   3.349   2.949   0.346   0.444   1.546   2.664   0.410

   1.544   2.006   4.147   1.539   1.007   1.615   1.539   1.009   5.328   1.484

   1.241   1.279   1.486   1.045   5.319   1.557   1.989   5.246   1.219   0.694

   3.216   1.498   1.826   4.092   1.370   1.959   0.069   1.485   2.953   5.968

   1.394   2.215   3.186   1.393   2.126   3.113   1.513   1.974   4.627   1.359

   0.118   2.992   1.359   1.080   0.014   1.405   2.107   5.217   1.405   2.095

   2.083   1.398   2.099   3.145   1.397   2.100   3.138   1.397   2.096   6.283

   1.380   2.308   3.180   1.380   3.006   2.952   1.112   1.720   3.471   1.113

   1.904   6.269   1.113   1.886   2.029   1.112   1.930   1.142   1.112   1.924

   2.593   1.113   1.918   4.674   1.112   1.920   1.610   1.110   1.931   3.702

   1.115   1.927   4.384   1.114   1.924   2.306   1.114   1.925   2.003   1.112

   1.929   4.083   1.110   1.968   6.105   1.111   1.932   1.985   1.115   1.911

   0.488   1.114   1.917   2.535   1.082   2.079   0.024   1.082   2.085   3.145

   1.082   2.104   0.000   1.083   2.105   6.279   1.082   2.094   3.142   1.083

   2.093   3.141   1.082   2.093   3.142   1.109   1.902   3.109   1.110   1.926

   5.190   1.111   1.922   1.032   1.109   1.902   0.214   1.110   1.925   2.295

   1.111   1.922   4.421   1.048   1.412   3.252
 GRADIENT         -0.000  -0.000  -0.000  -0.719   0.000   0.000   7.980  -7.811
   0.000  -5.240  51.234   2.951  -3.219  41.830  -0.129  18.133  34.034  14.144

  10.346   2.896  -2.641   2.593  -8.424   9.664   4.859  -6.366  -7.012 -33.068

 -14.049   3.958 -27.600 -12.388   0.729  -0.255 -29.357  35.252  51.161  24.911

  -2.355 -19.974  35.260   9.839 -34.456  11.563   1.885 -29.179   0.105   2.582

  -2.196 -19.977  -2.470  -1.216  -8.683  -1.303   9.672   8.926  -0.309  17.392

 -51.712  -0.599  12.409 -32.568  -2.445  12.491   4.449   2.133  14.670   3.656

  -0.796   7.417   0.672   0.059   6.466   3.014   0.942   2.524   1.039   0.178

 -21.980  23.951   0.660 -21.684 -25.677   0.764  -3.968  -3.331  -1.098   1.719

  -3.168  -2.272   2.024  -2.618   2.560  -3.040   3.536   4.426   0.906  -1.121

  -3.727   1.943  -1.055   7.348   2.482  -1.367  -7.036   0.221  -0.021   4.547

  -2.348   0.374   3.466  -3.367   1.012  -4.303  -1.180   0.162  -3.621  -4.270

   2.760   5.355   2.567   2.492  -9.043   5.859  -2.969   3.057  -3.242  -1.888

  -1.839  -5.904   0.219   3.361  -0.520  -5.237   0.106  -5.843  -0.390  -0.257

  -2.749  -0.268   1.180  -3.775   0.770  -0.515  -5.914   0.596   0.244  -5.696

   0.264  -0.221  -6.610  -0.097  -0.095   7.401  15.544  -0.102   5.859  -1.781

   0.450   5.840  -1.905  -0.256   7.922  15.719  -0.149   5.389  -1.761   0.396

   5.668  -1.987  -0.201  -7.347   1.127  -3.326
       HoF         ACTUAL,  PREDICTED ENERGY CHANGE, RATIO
    74.1169901    -0.6381826          -0.6787293    0.9402609
     STEPSIZE USED IS  0.00442
 CALCULATED STEP
     0.000217 -0.000631  0.000207  0.000034  0.000556  0.000147 -0.000061  0.000021
     0.000115  0.000030 -0.000849 -0.000068  0.000388  0.000764  0.000171 -0.000776
     0.000042 -0.000779 -0.000209 -0.000630 -0.000224 -0.000033  0.000034 -0.000175
    -0.000080  0.000224  0.000325  0.000979  0.000170 -0.000020  0.000874  0.000400
     0.000082  0.000233  0.000577 -0.000587 -0.001553 -0.000869  0.000199  0.000736
    -0.000345 -0.000259  0.000797 -0.000214  0.000008  0.000624  0.000040 -0.000084
    -0.000043  0.000503  0.000103 -0.000047 -0.000069  0.000082 -0.000371 -0.000289
     0.000059 -0.000271  0.001475  0.000182 -0.000312  0.000833  0.000180 -0.000487
    -0.000097 -0.000022 -0.000584 -0.000262  0.000066 -0.000334 -0.000181  0.000042
    -0.000322 -0.000271  0.000016 -0.000164 -0.000002  0.000038  0.000487 -0.000846
     0.000011  0.000366  0.000600 -0.000034  0.000098  0.000052  0.000052 -0.000069
     0.000092  0.000084 -0.000087  0.000002 -0.000059  0.000062 -0.000194 -0.000113
    -0.000055 -0.000029  0.000125 -0.000079  0.000005 -0.000200 -0.000100 -0.000041
     0.000225 -0.000031 -0.000043 -0.000119  0.000046 -0.000039 -0.000085  0.000072
    -0.000095  0.000144  0.000008 -0.000076  0.000123  0.000104 -0.000117 -0.000146
    -0.000094 -0.000074  0.000284 -0.000198  0.000015 -0.000075  0.000064 -0.000042
     0.000070  0.000145 -0.000068 -0.000082 -0.000026  0.000045  0.000011  0.000127
    -0.000031  0.000021  0.000037 -0.000102 -0.000022  0.000081 -0.000023  0.000028
     0.000136 -0.000071  0.000006  0.000131 -0.000062  0.000020  0.000157 -0.000051
     0.000016 -0.000240 -0.000508  0.000019 -0.000191  0.000035  0.000004 -0.000200
    -0.000033  0.000023 -0.000262 -0.000562  0.000021 -0.000184 -0.000016  0.000005
    -0.000187  0.000028  0.000022  0.000215 -0.000085  0.000123
     NEW TRUST RADIUS =  0.00884
*REMARK   3 HET = Not identified; C 24 H 30 N O 3    =    58 atoms res:    1
 PM7 CHARGE=+1 EF NOXYZ PRNT=2 PDBOUT COMPFG GRAPHF
 3152

  O(HETATM    1  O1  HET A   1)   0.00045238 +1   -0.0015904 +1    0.0005062 +1
  O(HETATM    2  O2  HET A   1)   6.45646533 +1    0.0678005 +1    0.0168046 +1     1     0     0
  O(HETATM    3  O3  HET A   1)   2.70140870 +1   55.1999195 +1    0.0139527 +1     2     1     0
  N(HETATM    4  N   HET A   1)   7.18438878 +1  103.7671182 +1 -168.1354023 +1     1     2     3
  C(HETATM    5  C1  HET A   1)   2.94924934 +1   19.8418744 +1   25.4129986 +1     4     1     2
[...]
    12       C(HETATM   12  C8  HET A   1)    1.55142393  *  113.8576202  *  -66.8604391  *     7     6     5
    13       C(HETATM   13  C9  HET A   1)    1.19916570  *   37.2219223  *  179.5980563  *     1     2     3
    14       C(HETATM   14  C10 HET A   1)    1.50195805  *  104.7845184  * -124.9036436  *    12     7     6
    15       C(HETATM   15  C11 HET A   1)    1.39606666  *  111.9386028  *    4.6437221  *    14    12     7
    16       C(HETATM   16  C12 HET A   1)    1.52349576  *  168.2252945  *  -49.8708405  *     4     1     2
    17       C(HETATM   17  C13 HET A   1)    1.39040938  *  126.8029449  * -174.7555296  *    14    12     7
    18       C(HETATM   18  C14 HET A   1)    1.39462267  *  121.5227411  *  179.5422948  *    15    14    12
    19       C(HETATM   19  C15 HET A   1)    1.49824819  *  108.8571279  *  -81.0001960  *    16     4     1
    20       C(HETATM   20  C16 HET A   1)    1.35088235  *    9.9702673  *  175.9878906  *     2     1     3
    21       C(HETATM   21  C17 HET A   1)    1.35811319  *   66.4359025  *    0.7021837  *     3     2     1
    22       C(HETATM   22  C18 HET A   1)    1.39746629  *  119.3774923  *  -71.8206597  *    19    16     4
    23       C(HETATM   23  C19 HET A   1)    1.39501486  *  120.1122870  *  108.8139014  *    19    16     4
    24       C(HETATM   24  C20 HET A   1)    1.39228659  *  119.4900156  *  179.6863607  *    22    19    16
    25       C(HETATM   25  C21 HET A   1)    1.39382344  *  119.7586574  * -179.9792973  *    23    19    16
    26       C(HETATM   26  C22 HET A   1)    1.39407946  *  119.8511789  *    0.1297172  *    25    23    19
    27       C(HETATM   27  C23 HET A   1)    1.42425974  *  126.9620288  * -176.5557803  *     2     1     3
    28       C(HETATM   28  C24 HET A   1)    1.42307619  *  176.9679500  * -176.5429537  *     3     2     1
    29       H(HETATM   29  H1  HET A   1)    1.11831981  *  100.3230807  * -155.1168421  *     5     4     1
    30       H(HETATM   30 1H2  HET A   1)    1.11209146  *  110.5729851  *   -3.5531810  *     6     5     4
    31       H(HETATM   31 2H2  HET A   1)    1.11059270  *  109.9149003  *  111.9944936  *     6     5     4
    32       H(HETATM   32  H3  HET A   1)    1.11145925  *  110.8745137  *   58.1332039  *     7     6     5
    33       H(HETATM   33 1H4  HET A   1)    1.11300418  *  109.9191630  *  150.1830953  *     8     5     4
    34       H(HETATM   34 2H4  HET A   1)    1.10860487  *  110.3405394  *  -95.0020297  *     8     5     4
    35       H(HETATM   35 1H5  HET A   1)    1.10809602  *  110.6597188  *   94.9441589  *     9     5     4
    36       H(HETATM   36 2H5  HET A   1)    1.11420160  *  109.9241109  * -150.3200486  *     9     5     4
    37       H(HETATM   37 1H6  HET A   1)    1.11423169  *  109.0420771  * -109.7344853  *    10     4     1
    38       H(HETATM   38 2H6  HET A   1)    1.11424651  *  108.9363786  *  133.7452609  *    10     4     1
    39       H(HETATM   39 1H7  HET A   1)    1.11293909  *  109.3698068  *  118.4556986  *    11     4     1
    40       H(HETATM   40 2H7  HET A   1)    1.11674467  *  108.5837645  * -125.3619848  *    11     4     1
    41       H(HETATM   41 1H8  HET A   1)    1.10428684  *  111.9006393  *   -4.7945958  *    12     7     6
    42       H(HETATM   42 2H8  HET A   1)    1.10351330  *  111.5441370  *  114.4030203  *    12     7     6
    43       H(HETATM   43 1H12 HET A   1)    1.11433107  *  109.6635532  *   42.3329437  *    16     4     1
    44       H(HETATM   44 2H12 HET A   1)    1.11811239  *  109.1097675  *  158.1171421  *    16     4     1
    45       H(HETATM   45  H13 HET A   1)    1.08383351  *  120.4744186  *    0.1112418  *    17    14    12
    46       H(HETATM   46  H14 HET A   1)    1.08992574  *  119.5048243  * -179.4205968  *    18    15    14
    47       H(HETATM   47  H18 HET A   1)    1.08814641  *  120.9624683  *   -1.7213598  *    22    19    16
    48       H(HETATM   48  H19 HET A   1)    1.08984952  *  120.5521352  *    1.1314381  *    23    19    16
    49       H(HETATM   49  H20 HET A   1)    1.09296082  *  119.8939447  *  179.9916741  *    24    22    19
    50       H(HETATM   50  H21 HET A   1)    1.09232074  *  119.9435020  * -179.4154460  *    25    23    19
    51       H(HETATM   51  H22 HET A   1)    1.09393429  *  119.8310866  * -179.9176577  *    26    25    23
    52       H(HETATM   52 1H23 HET A   1)    1.10155207  *  101.4714337  *  178.9196700  *    27     2     1
    53       H(HETATM   53 2H23 HET A   1)    1.09372587  *  111.1717192  *  -63.7392550  *    27     2     1
    54       H(HETATM   54 3H23 HET A   1)    1.09377691  *  111.0542330  *   61.5372952  *    27     2     1
    55       H(HETATM   55 1H24 HET A   1)    1.10039672  *  101.6438618  *    0.5249694  *    28     3     2
    56       H(HETATM   56 2H24 HET A   1)    1.09422350  *  111.4941854  *  117.9931017  *    28     3     2
    57       H(HETATM   57 3H24 HET A   1)    1.09455037  *  110.7424312  * -116.8506048  *    28     3     2
    58       H(HETATM   58  H   HET A   1)    1.05192495  *   78.6497800  *  177.8708857  *     4     1     2

                             CARTESIAN COORDINATES

   1    O        0.264182896     0.137949019     0.080903140
   2    O        6.735789382     0.137949019     0.080903140
   3    O        5.353095561     2.234586083     0.080903140
   4    N       -1.876197105    -6.447532432     0.982330487
   5    C       -0.061042766    -4.119545676     1.081188668
   6    C        0.180714069    -2.604916998     1.129896125
   7    C        1.108598924    -2.129416665     0.014132896
   8    C       -0.883629591    -4.568640037     2.301491792
   9    C       -0.818192452    -4.522621181    -0.195724948
  10    C       -1.141413145    -6.074592326     2.260264442
  11    C       -1.056460815    -6.028840152    -0.227470874
  12    C        2.565117800    -2.647204479     0.145908328
  13    C        1.219076778    -0.587413061     0.075814467
  14    C        3.415134531    -1.409046699     0.128164615
  15    C        2.642689453    -0.246307219     0.108991032
  16    C       -2.142613479    -7.947152679     0.947678657
  17    C        4.804355509    -1.352507437     0.117838730
  18    C        3.229462357     1.018836032     0.099908102
  19    C       -3.099399908    -8.243384510    -0.166571792
  20    C        5.405308422    -0.095365646     0.097267644
  21    C        4.612860467     1.096038453     0.096159095
  22    C       -4.439349116    -7.868153349    -0.037537911
  23    C       -2.655178414    -8.899729584    -1.314589588
  24    C       -5.329107311    -8.136402672    -1.074280217
  25    C       -3.551520090    -9.171231658    -2.346869586
  26    C       -4.885240162    -8.783346260    -2.227734251
  27    C        7.592176281    -0.998027624     0.012533833
  28    C        4.633454998     3.462284217     0.076364161
  29    H        0.929545248    -4.638321815     1.096869575
  30    H       -0.782694137    -2.053139897     1.065599381
  31    H        0.610352108    -2.321868137     2.114127116
  32    H        0.695663249    -2.392857694    -0.983576790
  33    H       -0.342267687    -4.311209339     3.239273765
  34    H       -1.830733482    -3.995414892     2.359903358
  35    H       -1.763812939    -3.952083501    -0.286087816
  36    H       -0.230372298    -4.227145565    -1.094950630
  37    H       -0.181704005    -6.638869074     2.305677741
  38    H       -1.751576340    -6.396470122     3.135273498
  39    H       -0.093303955    -6.586464362    -0.231655917
  40    H       -1.606985043    -6.328986122    -1.151567253
  41    H        2.717754822    -3.213933922     1.081306156
  42    H        2.829030707    -3.329299321    -0.680431918
  43    H       -1.179470562    -8.496653011     0.837502262
  44    H       -2.570158920    -8.265780217     1.930458741
  45    H        5.391590464    -2.263464580     0.120534940
  46    H        2.594777186     1.904885526     0.094510280
  47    H       -4.801909484    -7.390069758     0.870233352
  48    H       -1.616752555    -9.218287015    -1.403835695
  49    H       -6.378565433    -7.845938865    -0.980302626
  50    H       -3.209069929    -9.693490132    -3.243049580
  51    H       -5.588744806    -8.997799228    -3.037538772
  52    H        8.586345468    -0.523709095     0.020690092
  53    H        7.469118790    -1.638883880     0.890256112
  54    H        7.439732494    -1.549506938    -0.919656806
  55    H        5.448815509     4.197380093     0.000904078
  56    H        3.973886800     3.537184458    -0.793512155
  57    H        4.085216997     3.593737973     1.014551514
  58    H       -2.793773116    -5.934111023     0.950726410


           Empirical Formula: C24 H30 N O3  =    58 atoms



      MOLECULAR POINT GROUP   :   C1  


                  EIGENVALUES  
 -42.21385 -34.10332 -33.85705 -33.13144 -32.86279 -32.39970 -32.12404 -31.08461
 -30.75202 -30.39432 -29.32147 -28.66229 -27.97116 -27.39404 -27.29911 -26.20670
 -26.07474 -25.89805 -25.45695 -24.81802 -24.34753 -23.75582 -23.49677 -22.46955
 -22.14502 -21.63957 -21.53203 -21.15533 -20.92083 -20.25213 -19.55681 -19.33662
 -19.20717 -19.05671 -18.93743 -18.76655 -18.53411 -18.21366 -18.13566 -17.88584
 -17.84584 -17.63613 -17.45193 -17.35797 -17.25370 -17.17110 -17.11807 -17.01064
 -16.77538 -16.58978 -16.52216 -16.30544 -16.17731 -16.02332 -15.73700 -15.54803
 -15.39565 -15.28761 -15.24370 -15.21409 -15.11105 -14.96303 -14.59277 -14.45622
 -14.20714 -13.97532 -13.85506 -13.46619 -13.20572 -13.17816 -13.14304 -11.96567
 -11.51601 -10.26656  -3.78448  -3.09729  -2.95294  -2.27304  -1.67209  -1.43836
  -1.33390  -0.77564  -0.59032  -0.50069  -0.30101  -0.21798  -0.21662   0.03490
   0.08044   0.35268   0.51178   0.61017   0.63756   0.71911   0.84016   0.98738
   1.07588   1.08638   1.24167   1.27598   1.32265   1.39948   1.48087   1.66693
   1.70371   1.74861   1.78803   1.81410   1.85860   1.91071   1.96392   2.26126
   2.28149   2.47004   2.52355   2.58384   2.62989   2.63477   2.65794   2.67146
   2.79607   2.96340   2.97545   2.99633   3.06789   3.09892   3.17296   3.21649
   3.35264   3.52895   3.58375   3.64284   3.68781   3.71629   3.81532   3.93225
   3.95698   4.07443   4.08831   4.27244   4.39093   4.63106


              NET ATOMIC CHARGES AND DIPOLE CONTRIBUTIONS

  ATOM NO.                 TYPE                        CHARGE      No. of ELECS.   s-Pop       p-Pop       
    1          O(HETATM    1  O1  HET A   1)          -0.435654        6.4357     1.87530     4.56035
    2          O(HETATM    2  O2  HET A   1)          -0.247927        6.2479     1.86897     4.37895
    3          O(HETATM    3  O3  HET A   1)          -0.262563        6.2626     1.87078     4.39178
    4          N(HETATM    4  N   HET A   1)          -0.114355        5.1144     1.53291     3.58145
    5          C(HETATM    5  C1  HET A   1)          -0.094852        4.0949     1.06460     3.03025
    6          C(HETATM    6  C2  HET A   1)          -0.289869        4.2899     1.06297     3.22690
    7          C(HETATM    7  C3  HET A   1)          -0.224533        4.2245     1.08085     3.14368
    8          C(HETATM    8  C4  HET A   1)          -0.316848        4.3168     1.06804     3.24881
    9          C(HETATM    9  C5  HET A   1)          -0.313549        4.3135     1.06716     3.24639
   10          C(HETATM   10  C6  HET A   1)          -0.167918        4.1679     1.09236     3.07555
   11          C(HETATM   11  C7  HET A   1)          -0.171180        4.1712     1.09246     3.07872
   12          C(HETATM   12  C8  HET A   1)          -0.293445        4.2934     1.06217     3.23128
   13          C(HETATM   13  C9  HET A   1)           0.483775        3.5162     1.11771     2.39852
   14          C(HETATM   14  C10 HET A   1)           0.067638        3.9324     1.07007     2.86229
   15          C(HETATM   15  C11 HET A   1)          -0.215142        4.2151     1.06369     3.15145
   16          C(HETATM   16  C12 HET A   1)          -0.177559        4.1776     1.08946     3.08809
   17          C(HETATM   17  C13 HET A   1)          -0.314637        4.3146     1.06944     3.24519
   18          C(HETATM   18  C14 HET A   1)          -0.154921        4.1549     1.07829     3.07663
   19          C(HETATM   19  C15 HET A   1)          -0.110337        4.1103     1.05966     3.05068
   20          C(HETATM   20  C16 HET A   1)           0.219994        3.7800     1.09050     2.68951
   21          C(HETATM   21  C17 HET A   1)           0.115599        3.8844     1.07829     2.80611
   22          C(HETATM   22  C18 HET A   1)          -0.158739        4.1587     1.08458     3.07416
   23          C(HETATM   23  C19 HET A   1)          -0.137367        4.1374     1.08676     3.05060
   24          C(HETATM   24  C20 HET A   1)          -0.123351        4.1234     1.08833     3.03502
   25          C(HETATM   25  C21 HET A   1)          -0.127262        4.1273     1.08893     3.03833
   26          C(HETATM   26  C22 HET A   1)          -0.099872        4.0999     1.09326     3.00661
   27          C(HETATM   27  C23 HET A   1)          -0.218870        4.2189     1.09058     3.12829
   28          C(HETATM   28  C24 HET A   1)          -0.214390        4.2144     1.08964     3.12475
   29          H(HETATM   29  H1  HET A   1)           0.147244        0.8528     0.85276
   30          H(HETATM   30 1H2  HET A   1)           0.169242        0.8308     0.83076
   31          H(HETATM   31 2H2  HET A   1)           0.162371        0.8376     0.83763
   32          H(HETATM   32  H3  HET A   1)           0.156374        0.8436     0.84363
   33          H(HETATM   33 1H4  HET A   1)           0.183324        0.8167     0.81668
   34          H(HETATM   34 2H4  HET A   1)           0.165921        0.8341     0.83408
   35          H(HETATM   35 1H5  HET A   1)           0.166740        0.8333     0.83326
   36          H(HETATM   36 2H5  HET A   1)           0.185489        0.8145     0.81451
   37          H(HETATM   37 1H6  HET A   1)           0.175977        0.8240     0.82402
   38          H(HETATM   38 2H6  HET A   1)           0.172389        0.8276     0.82761
   39          H(HETATM   39 1H7  HET A   1)           0.174159        0.8258     0.82584
   40          H(HETATM   40 2H7  HET A   1)           0.180371        0.8196     0.81963
   41          H(HETATM   41 1H8  HET A   1)           0.154268        0.8457     0.84573
   42          H(HETATM   42 2H8  HET A   1)           0.153688        0.8463     0.84631
   43          H(HETATM   43 1H12 HET A   1)           0.182684        0.8173     0.81732
   44          H(HETATM   44 2H12 HET A   1)           0.186375        0.8136     0.81363
   45          H(HETATM   45  H13 HET A   1)           0.172622        0.8274     0.82738
   46          H(HETATM   46  H14 HET A   1)           0.186236        0.8138     0.81376
   47          H(HETATM   47  H18 HET A   1)           0.151529        0.8485     0.84847
   48          H(HETATM   48  H19 HET A   1)           0.158270        0.8417     0.84173
   49          H(HETATM   49  H20 HET A   1)           0.174657        0.8253     0.82534
   50          H(HETATM   50  H21 HET A   1)           0.174598        0.8254     0.82540
   51          H(HETATM   51  H22 HET A   1)           0.176245        0.8238     0.82376
   52          H(HETATM   52 1H23 HET A   1)           0.168946        0.8311     0.83105
   53          H(HETATM   53 2H23 HET A   1)           0.136168        0.8638     0.86383
   54          H(HETATM   54 3H23 HET A   1)           0.138304        0.8617     0.86170
   55          H(HETATM   55 1H24 HET A   1)           0.163324        0.8367     0.83668
   56          H(HETATM   56 2H24 HET A   1)           0.138733        0.8613     0.86127
   57          H(HETATM   57 3H24 HET A   1)           0.138655        0.8613     0.86134
   58          H(HETATM   58  H   HET A   1)           0.303233        0.6968     0.69677
 DIPOLE           X         Y         Z       TOTAL
 POINT-CHG.    -8.708   -15.366     2.053    17.781
 HYBRID        -0.343    -0.338     0.423     0.641
 SUM           -9.051   -15.704     2.476    18.294


          ATOMIC ORBITAL ELECTRON POPULATIONS

                   Atom                  s        px        py        pz   
   O(HETATM    1  O1  HET A   1)   1.87530   1.48750   1.65484   1.41801
   O(HETATM    2  O2  HET A   1)   1.86897   1.19478   1.32981   1.85437
   O(HETATM    3  O3  HET A   1)   1.87078   1.32632   1.18340   1.88207
   N(HETATM    4  N   HET A   1)   1.53291   1.22086   1.17807   1.18251
   C(HETATM    5  C1  HET A   1)   1.06460   1.05530   1.04483   0.93013
   C(HETATM    6  C2  HET A   1)   1.06297   1.13643   0.98186   1.10861
   C(HETATM    7  C3  HET A   1)   1.08085   0.99546   1.07234   1.07588
   C(HETATM    8  C4  HET A   1)   1.06804   1.16333   0.96265   1.12283
   C(HETATM    9  C5  HET A   1)   1.06716   1.16880   0.96188   1.11571
   C(HETATM   10  C6  HET A   1)   1.09236   1.10450   1.07781   0.89324
   C(HETATM   11  C7  HET A   1)   1.09246   1.08024   1.06849   0.93000
   C(HETATM   12  C8  HET A   1)   1.06217   0.99690   1.06767   1.16670
   C(HETATM   13  C9  HET A   1)   1.11771   0.86776   0.86118   0.66958
   C(HETATM   14  C10 HET A   1)   1.07007   0.96290   0.96068   0.93872
   C(HETATM   15  C11 HET A   1)   1.06369   1.00645   0.99489   1.15011
   C(HETATM   16  C12 HET A   1)   1.08946   1.14523   0.80366   1.13920
   C(HETATM   17  C13 HET A   1)   1.06944   1.02239   1.05875   1.16405
   C(HETATM   18  C14 HET A   1)   1.07829   1.00087   1.05599   1.01977
   C(HETATM   19  C15 HET A   1)   1.05966   0.98139   1.08741   0.98188
   C(HETATM   20  C16 HET A   1)   1.09050   0.82543   0.95442   0.90966
   C(HETATM   21  C17 HET A   1)   1.07829   0.93234   0.85732   1.01644
   C(HETATM   22  C18 HET A   1)   1.08458   0.98565   1.02447   1.06404
   C(HETATM   23  C19 HET A   1)   1.08676   1.08063   0.99015   0.97982
   C(HETATM   24  C20 HET A   1)   1.08833   1.07706   0.98103   0.97693
   C(HETATM   25  C21 HET A   1)   1.08893   0.99248   0.99761   1.04824
   C(HETATM   26  C22 HET A   1)   1.09326   1.02291   0.95068   1.03302
   C(HETATM   27  C23 HET A   1)   1.09058   1.00774   0.97501   1.14555
   C(HETATM   28  C24 HET A   1)   1.08964   1.10622   0.87115   1.14739
   H(HETATM   29  H1  HET A   1)   0.85276
   H(HETATM   30 1H2  HET A   1)   0.83076
   H(HETATM   31 2H2  HET A   1)   0.83763
   H(HETATM   32  H3  HET A   1)   0.84363
   H(HETATM   33 1H4  HET A   1)   0.81668
   H(HETATM   34 2H4  HET A   1)   0.83408
   H(HETATM   35 1H5  HET A   1)   0.83326
   H(HETATM   36 2H5  HET A   1)   0.81451
   H(HETATM   37 1H6  HET A   1)   0.82402
   H(HETATM   38 2H6  HET A   1)   0.82761
   H(HETATM   39 1H7  HET A   1)   0.82584
   H(HETATM   40 2H7  HET A   1)   0.81963
   H(HETATM   41 1H8  HET A   1)   0.84573
   H(HETATM   42 2H8  HET A   1)   0.84631
   H(HETATM   43 1H12 HET A   1)   0.81732
   H(HETATM   44 2H12 HET A   1)   0.81363
   H(HETATM   45  H13 HET A   1)   0.82738
   H(HETATM   46  H14 HET A   1)   0.81376
   H(HETATM   47  H18 HET A   1)   0.84847
   H(HETATM   48  H19 HET A   1)   0.84173
   H(HETATM   49  H20 HET A   1)   0.82534
   H(HETATM   50  H21 HET A   1)   0.82540
   H(HETATM   51  H22 HET A   1)   0.82376
   H(HETATM   52 1H23 HET A   1)   0.83105
   H(HETATM   53 2H23 HET A   1)   0.86383
   H(HETATM   54 3H23 HET A   1)   0.86170
   H(HETATM   55 1H24 HET A   1)   0.83668
   H(HETATM   56 2H24 HET A   1)   0.86127
   H(HETATM   57 3H24 HET A   1)   0.86134
   H(HETATM   58  H   HET A   1)   0.69677

           DATA FOR GRAPH WRITTEN TO DISK

 **********************
 *                    *
 * JOB ENDED NORMALLY *
 *                    *
 **********************



 TOTAL JOB TIME:             6.05 SECONDS

 == MOPAC DONE ==
