 *******************************************************************************
 **                                                                           **
 **                              MOPAC v22.0.6                                **
 **                                                                           **
 *******************************************************************************
 **          Digital Object Identifier (DOI): 10.5281/zenodo.6511958          **
 **    Visit the DOI location for information on how to cite this program.    **
 *******************************************************************************

                              PM7 CALCULATION RESULTS

 *******************************************************************************
 *  CALCULATION DONE:                                Sun Oct 12 19:45:57 2025  *
 *  PM7        - The PM7 Hamiltonian to be used
 *  PDBOUT     - PRINT GEOMETRY IN PDB FORMAT
 *  RESIDUES   - DETERMINE THE SEQUENCE OF RESIDUES
 *
 *
 *
 *                 CHARGE ON SYSTEM = +1
 *
 *
 *
 *  EF         - USE EF ROUTINE FOR MINIMUM SEARCH
 *  T=         - A TIME OF 172800.0 SECONDS REQUESTED
 *  DUMP=N     - RESTART FILE WRITTEN EVERY 7200.0 SECONDS REQUESTED
 *  NOXYZ      - CARTESIAN COORDINATES NOT TO BE PRINTED
 *  PRNT       - EXTRA PRINTING IN EF ROUTINE
 *  GRAPH      - GENERATE FILE FOR GRAPHICS
 *  COMPFG     - PRINT HEAT OF FORMATION CALC'D IN COMPFG
 *******************************************************************************
PM7 CHARGE=+1 EF NOXYZ PRNT=2 PDBOUT COMPFG GRAPHF
 16,17-dimethoxy-5,7-dioxa-13-azoniapentacyclo[11.8.0.02,10.04,8.015,20]henicosa-1(13),2,4(8),9,14,16,18,20-octaene

  ATOM    CHEMICAL      BOND LENGTH      BOND ANGLE     TWIST ANGLE 
 NUMBER    SYMBOL       (ANGSTROMS)      (DEGREES)       (DEGREES) 
   (I)                     NA:I           NB:NA:I       NC:NB:NA:I       NA    NB    NC 
     1       O          0.00000000  *    0.0000000  *    0.0000000  *     0     0     0
     2       O          2.22967000  *    0.0000000  *    0.0000000  *     1     0     0
     3       O          9.97988900  *   96.6612830  *    0.0000000  *     2     1     0
     4       O          2.85019900  *  102.9554630  * -168.5699190  *     3     2     1
     5       N          4.13278900  *   16.9254260  *   13.3718190  *     3     2     1
     6       C          1.47651700  *  119.1636870  *  174.6968400  *     5     3     2
     7       C          1.51772400  *  109.4468440  *  135.6464540  *     6     5     3
     8       C          1.37739000  *  121.1116490  *   -4.6841740  *     5     3     2
     9       C          1.50748700  *  107.9021990  *   59.0501720  *     7     6     5
    10       C          1.42901000  *  119.2230910  *  -40.2976040  *     9     7     6
    11       C          7.37476400  *   90.6143400  *    1.6175620  *     2     1     3
    12       C          1.40588700  *  119.4891570  *    4.2743980  *     8     5     3
    13       C          1.40532700  *  121.0912250  *  -94.0039050  *    11     5     3
    14       C          1.39840900  *  119.9392870  *   -1.6469040  *    12     8     5
    15       C          1.41028100  *  120.3599080  *  141.0456100  *     9     7     6
    16       C          1.41663300  *  119.2797510  * -176.5864330  *    10     9     7
    17       C          1.33530500  *   70.7078710  *    0.7331880  *     1     2     3
    18       C          1.33552600  *   70.7786130  *   -0.7625250  *     2     1     3
    19       C          1.36400000  *   45.5962090  * -167.1685390  *     3     2     1
    20       C          1.39765900  *  120.3317830  *  179.9157060  *    14    12     8
    21       C          1.35913200  *   59.2978570  *    2.6760670  *     4     3     2
    22       C          1.39188200  *   36.8024330  * -179.4264530  *     1     2     3
    23       C          1.39203400  *  120.3595730  *  179.8280630  *    20    14    12
    24       C          1.37906000  *  165.1117770  *  -94.7794120  *     3     2     1
    25       C          1.38025000  *  172.2126710  * -136.7317990  *     4     3     2
    26       H          1.11206000  *  111.8094180  *   12.0588270  *     6     5     3
    27       H          1.11356500  *  109.0333260  * -106.7492710  *     6     5     3
    28       H          1.11137600  *  107.4325200  *  -58.7332750  *     7     6     5
    29       H          1.11169200  *  111.8364240  * -177.9332950  *     7     6     5
    30       H          1.08407900  *  119.2465240  *   87.4379950  *    11     5     3
    31       H          1.08187800  *  121.1678740  *  179.9258160  *    12     8     5
    32       H          1.08258100  *  121.6599640  *   -1.5933380  *    15     9     7
    33       H          1.07965400  *  122.9658610  *  179.7514250  *    16    10     9
    34       H          1.08323200  *  120.6610560  *   -0.7053800  *    20    14    12
    35       H          1.11100500  *  110.0110160  * -119.2502980  *    22     1     2
    36       H          1.11028700  *  110.0832030  *  119.2758100  *    22     1     2
    37       H          1.08170700  *  117.8829920  *  178.9827020  *    23    20    14
    38       H          1.10935800  *  108.6354470  *  116.6126450  *    24     3     2
    39       H          1.11180900  *  109.5224500  *   -1.2150430  *    24     3     2
    40       H          1.10691400  *  111.7774270  * -124.8481590  *    24     3     2
    41       H          1.10966700  *  110.5390460  * -161.6646250  *    25     4     3
    42       H          1.11186300  *  110.0020270  *   76.4058880  *    25     4     3
    43       H          1.10941800  *  109.0563840  *  -42.2113740  *    25     4     3


 General Reference for PM7:
 "Optimization of Parameters for Semiempirical Methods VI: More Modifications to the 
 NDDO Approximations and Re-optimization of Parameters", J. J. P. Stewart, J. Mol. Mod., 1:32, 19 (2013)
 https://link.springer.com/article/10.1007/s00894-012-1667-x

           Empirical Formula: C20 H18 N O4  =    43 atoms



      MOLECULAR POINT GROUP   :   C1  


      RHF CALCULATION, NO. OF DOUBLY OCCUPIED LEVELS = 63


          Geometry optimization using EF

  HEAT OF FORMATION        95.190637969833915    
 PARAMETERS        0.000   0.000   0.000   2.230   0.000   0.000   9.980   1.687
   0.000   2.850   1.797   3.341   4.133   0.295   0.233   1.477   2.080   3.049

   1.518   1.910   2.367   1.377   2.114   6.201   1.507   1.883   1.031   1.429

   2.081   5.580   7.375   1.582   0.028   1.406   2.085   0.075   1.405   2.113

   4.643   1.398   2.093   6.254   1.410   2.101   2.462   1.417   2.082   3.201

   1.335   1.234   0.013   1.336   1.235   6.270   1.364   0.796   3.366   1.398

   2.100   3.140   1.359   1.035   0.047   1.392   0.642   3.152   1.392   2.101

   3.139   1.379   2.882   4.629   1.380   3.006   3.897   1.112   1.951   0.210

   1.114   1.903   4.420   1.111   1.875   5.258   1.112   1.952   3.178   1.084

   2.081   1.526   1.082   2.115   3.140   1.083   2.123   6.255   1.080   2.146

   3.137   1.083   2.106   6.271   1.111   1.920   4.202   1.110   1.921   2.082

   1.082   2.057   3.124   1.109   1.896   2.035   1.112   1.912   6.262   1.107

   1.951   4.104   1.110   1.929   3.462   1.112   1.920   1.334   1.109   1.903

   5.546
 GRADIENT          0.000   0.000  -0.000-160.174   0.000   0.000   9.213  42.157
   0.000  28.053  38.395   0.366  -6.082 -25.460  -3.340   2.290 -30.224 -10.849

  -8.047  38.135  -9.991 -52.836 -72.688   6.088  15.162  35.337  16.429  11.567

  40.944  -8.134  16.741 -15.749  48.375  19.583 -37.569  -1.657  11.890 -29.367

  -2.008 -18.109 -17.561  -1.225  12.508  11.448  -1.940  11.199 -12.097   2.640

 -20.139-123.702  -0.153 -30.008-128.384   0.334  18.567 -87.873  -9.158 -14.410

 -15.137   0.064  -1.360 -23.787   6.631 -30.881 -54.416  -0.068  12.185   9.038

   0.282 -21.594  12.207   7.255 -22.799 -19.372  -2.442  -1.258   2.648   0.836

  -7.464   3.215  -6.389  -4.032 -11.168   4.593   1.622   0.054  -2.673 -12.192

   2.193   0.512  -7.198   4.677   0.406  -3.818   0.994   0.389  -5.041   3.638

  -0.045  -6.195   1.602  -0.209   0.682   3.429  -5.364   0.370   3.454   5.385

  -7.038  -5.109  -0.143   6.566  16.693  -0.247   5.868  -2.188   2.887   3.472

   1.756  -2.811   5.095  -1.453  -0.769   5.662  -1.999   0.171   7.331  15.951

   0.450

          DIAGONAL MATRIX USED AS START HESSIAN

*REMARK   3 HET = Not identified; C 20 H 18 N O 4    =    43 atoms res:    1
 PM7 CHARGE=+1 EF NOXYZ PRNT=2 PDBOUT COMPFG GRAPHF
 16,17-dimethoxy-5,7-dioxa-13-azoniapentacyclo[11.8.0.02,10.04,8.015,20]henicosa-1(13),2,4(8),9,14,16,18,20-octaene

  O(HETATM    1  O1  HET A   1)   0.00000000 +1    0.0000000 +1    0.0000000 +1
  O(HETATM    2  O2  HET A   1)   2.22967000 +1    0.0000000 +1    0.0000000 +1     1     0     0
  O(HETATM    3  O3  HET A   1)   9.97988900 +1   96.6612830 +1    0.0000000 +1     2     1     0
  O(HETATM    4  O4  HET A   1)   2.85019900 +1  102.9554630 +1 -168.5699190 +1     3     2     1
  N(HETATM    5  N   HET A   1)   4.13278900 +1   16.9254260 +1   13.3718190 +1     3     2     1
  C(HETATM    6  C1  HET A   1)   1.47651700 +1  119.1636870 +1  174.6968400 +1     5     3     2
  C(HETATM    7  C2  HET A   1)   1.51772400 +1  109.4468440 +1  135.6464540 +1     6     5     3
  C(HETATM    8  C3  HET A   1)   1.37739000 +1  121.1116490 +1   -4.6841740 +1     5     3     2
  C(HETATM    9  C4  HET A   1)   1.50748700 +1  107.9021990 +1   59.0501720 +1     7     6     5
  C(HETATM   10  C5  HET A   1)   1.42901000 +1  119.2230910 +1  -40.2976040 +1     9     7     6
  C(HETATM   11  C6  HET A   1)   7.37476400 +1   90.6143400 +1    1.6175620 +1     2     1     3
  C(HETATM   12  C7  HET A   1)   1.40588700 +1  119.4891570 +1    4.2743980 +1     8     5     3
  C(HETATM   13  C8  HET A   1)   1.40532700 +1  121.0912250 +1  -94.0039050 +1    11     5     3
  C(HETATM   14  C9  HET A   1)   1.39840900 +1  119.9392870 +1   -1.6469040 +1    12     8     5
  C(HETATM   15  C10 HET A   1)   1.41028100 +1  120.3599080 +1  141.0456100 +1     9     7     6
  C(HETATM   16  C11 HET A   1)   1.41663300 +1  119.2797510 +1 -176.5864330 +1    10     9     7
  C(HETATM   17  C12 HET A   1)   1.33530500 +1   70.7078710 +1    0.7331880 +1     1     2     3
  C(HETATM   18  C13 HET A   1)   1.33552600 +1   70.7786130 +1   -0.7625250 +1     2     1     3
  C(HETATM   19  C14 HET A   1)   1.36400000 +1   45.5962090 +1 -167.1685390 +1     3     2     1
  C(HETATM   20  C15 HET A   1)   1.39765900 +1  120.3317830 +1  179.9157060 +1    14    12     8
  C(HETATM   21  C16 HET A   1)   1.35913200 +1   59.2978570 +1    2.6760670 +1     4     3     2
  C(HETATM   22  C17 HET A   1)   1.39188200 +1   36.8024330 +1 -179.4264530 +1     1     2     3
  C(HETATM   23  C18 HET A   1)   1.39203400 +1  120.3595730 +1  179.8280630 +1    20    14    12
  C(HETATM   24  C19 HET A   1)   1.37906000 +1  165.1117770 +1  -94.7794120 +1     3     2     1
  C(HETATM   25  C20 HET A   1)   1.38025000 +1  172.2126710 +1 -136.7317990 +1     4     3     2
  H(HETATM   26 1H1  HET A   1)   1.11206000 +1  111.8094180 +1   12.0588270 +1     6     5     3
  H(HETATM   27 2H1  HET A   1)   1.11356500 +1  109.0333260 +1 -106.7492710 +1     6     5     3
  H(HETATM   28 1H2  HET A   1)   1.11137600 +1  107.4325200 +1  -58.7332750 +1     7     6     5
  H(HETATM   29 2H2  HET A   1)   1.11169200 +1  111.8364240 +1 -177.9332950 +1     7     6     5
  H(HETATM   30  H6  HET A   1)   1.08407900 +1  119.2465240 +1   87.4379950 +1    11     5     3
  H(HETATM   31  H7  HET A   1)   1.08187800 +1  121.1678740 +1  179.9258160 +1    12     8     5
  H(HETATM   32  H10 HET A   1)   1.08258100 +1  121.6599640 +1   -1.5933380 +1    15     9     7
  H(HETATM   33  H11 HET A   1)   1.07965400 +1  122.9658610 +1  179.7514250 +1    16    10     9
  H(HETATM   34  H15 HET A   1)   1.08323200 +1  120.6610560 +1   -0.7053800 +1    20    14    12
  H(HETATM   35 1H17 HET A   1)   1.11100500 +1  110.0110160 +1 -119.2502980 +1    22     1     2
  H(HETATM   36 2H17 HET A   1)   1.11028700 +1  110.0832030 +1  119.2758100 +1    22     1     2
  H(HETATM   37  H18 HET A   1)   1.08170700 +1  117.8829920 +1  178.9827020 +1    23    20    14
  H(HETATM   38 1H19 HET A   1)   1.10935800 +1  108.6354470 +1  116.6126450 +1    24     3     2
  H(HETATM   39 2H19 HET A   1)   1.11180900 +1  109.5224500 +1   -1.2150430 +1    24     3     2
  H(HETATM   40 3H19 HET A   1)   1.10691400 +1  111.7774270 +1 -124.8481590 +1    24     3     2
  H(HETATM   41 1H20 HET A   1)   1.10966700 +1  110.5390460 +1 -161.6646250 +1    25     4     3
  H(HETATM   42 2H20 HET A   1)   1.11186300 +1  110.0020270 +1   76.4058880 +1    25     4     3
  H(HETATM   43 3H20 HET A   1)   1.10941800 +1  109.0563840 +1  -42.2113740 +1    25     4     3

 XPARAM 
  1  1    0.0000  1  2    0.0000  1  3    0.0000  2  1    2.2297  2  2    0.0000
  2  3    0.0000  3  1    9.9799  3  2    1.6871  3  3    0.0000  4  1    2.8502
  4  2    1.7969  4  3    3.3411  5  1    4.1328  5  2    0.2954  5  3    0.2334
  6  1    1.4765  6  2    2.0798  6  3    3.0490  7  1    1.5177  7  2    1.9102
  7  3    2.3675  8  1    1.3774  8  2    2.1138  8  3    6.2014  9  1    1.5075
  9  2    1.8832  9  3    1.0306 10  1    1.4290 10  2    2.0808 10  3    5.5799
 11  1    7.3748 11  2    1.5815 11  3    0.0282 12  1    1.4059 12  2    2.0855
 12  3    0.0746 13  1    1.4053 13  2    2.1134 13  3    4.6425 14  1    1.3984
 14  2    2.0933 14  3    6.2544 15  1    1.4103 15  2    2.1007 15  3    2.4617
 16  1    1.4166 16  2    2.0818 16  3    3.2012 17  1    1.3353 17  2    1.2341
 17  3    0.0128 18  1    1.3355 18  2    1.2353 18  3    6.2699 19  1    1.3640
 19  2    0.7958 19  3    3.3655 20  1    1.3977 20  2    2.1002 20  3    3.1401
 21  1    1.3591 21  2    1.0349 21  3    0.0467 22  1    1.3919 22  2    0.6423
 22  3    3.1516 23  1    1.3920 23  2    2.1007 23  3    3.1386 24  1    1.3791
 24  2    2.8817 24  3    4.6290 25  1    1.3802 25  2    3.0057 25  3    3.8968
 26  1    1.1121 26  2    1.9514 26  3    0.2105 27  1    1.1136 27  2    1.9030
 27  3    4.4201 28  1    1.1114 28  2    1.8751 28  3    5.2581 29  1    1.1117
 29  2    1.9519 29  3    3.1777 30  1    1.0841 30  2    2.0812 30  3    1.5261
 31  1    1.0819 31  2    2.1148 31  3    3.1403 32  1    1.0826 32  2    2.1234
 32  3    6.2554 33  1    1.0797 33  2    2.1462 33  3    3.1373 34  1    1.0832
 34  2    2.1059 34  3    6.2709 35  1    1.1110 35  2    1.9201 35  3    4.2019
 36  1    1.1103 36  2    1.9213 36  3    2.0818 37  1    1.0817 37  2    2.0574
 37  3    3.1238 38  1    1.1094 38  2    1.8960 38  3    2.0353 39  1    1.1118
 39  2    1.9115 39  3    6.2620 40  1    1.1069 40  2    1.9509 40  3    4.1042
 41  1    1.1097 41  2    1.9293 41  3    3.4616 42  1    1.1119 42  2    1.9199
 42  3    1.3335 43  1    1.1094 43  2    1.9034 43  3    5.5465
 grad
       0.00001    0.00001   -0.00000 -160.17450    0.00000    0.00000    9.21314   42.15669
       0.00000   28.05275   38.39495    0.36613   -6.08209  -25.46023   -3.33993    2.29044
     -30.22377  -10.84886   -8.04664   38.13458   -9.99114  -52.83629  -72.68799    6.08827
      15.16158   35.33712   16.42867   11.56658   40.94415   -8.13432   16.74144  -15.74911
      48.37515   19.58313  -37.56896   -1.65740   11.89000  -29.36717   -2.00786  -18.10914
     -17.56071   -1.22546   12.50849   11.44772   -1.93974   11.19872  -12.09694    2.63986
     -20.13922 -123.70212   -0.15328  -30.00828 -128.38413    0.33427   18.56708  -87.87322
      -9.15835  -14.41020  -15.13748    0.06424   -1.35958  -23.78718    6.63061  -30.88063
     -54.41621   -0.06839   12.18539    9.03818    0.28182  -21.59411   12.20674    7.25475
     -22.79874  -19.37220   -2.44175   -1.25784    2.64826    0.83554   -7.46373    3.21515
      -6.38941   -4.03172  -11.16780    4.59265    1.62210    0.05352   -2.67261  -12.19189
       2.19336    0.51217   -7.19833    4.67670    0.40581   -3.81799    0.99383    0.38850
      -5.04110    3.63765   -0.04490   -6.19549    1.60153   -0.20893    0.68245    3.42889
      -5.36370    0.37003    3.45443    5.38470   -7.03804   -5.10903   -0.14308    6.56636
      16.69281   -0.24692    5.86756   -2.18757    2.88703    3.47179    1.75550   -2.81073
       5.09530   -1.45279   -0.76882    5.66216   -1.99896    0.17144    7.33090   15.95136
       0.45023
 CYCLE:     1 TIME:   0.047 TIME LEFT:  2.00D  GRAD.:   318.257 HEAT:  95.19064

          HESSIAN HAS  0 NEGATIVE EIGENVALUE(S)
  MIN SEARCH, CORRECT HESSIAN, TRYING PURE NR STEP
 LAMBDA THAT MINIMIZES ALONG ALL MODES =        0.000000000
 PURE NR-STEP HAS LENGTH   0.55987
 LAMBDA THAT MINIMIZES ALONG ALL MODES =     -123.784564520
 P-RFO-STEP   HAS LENGTH   0.43435
 LAMBDA THAT MINIMIZES ALONG ALL MODES =     -876.960541860
 QA/TRIM-STEP HAS LENGTH   0.20000

  HEAT OF FORMATION        546.23395680265094    
 PARAMETERS       -0.001  -0.013  -0.004   2.314  -0.009  -0.002   9.971   1.663
   0.009   2.829   1.756   3.343   4.134   0.309   0.237   1.470   2.088   3.061

   1.517   1.870   2.378   1.399   2.148   6.197   1.495   1.847   1.017   1.416

   2.034   5.589   7.363   1.594  -0.011   1.391   2.104   0.078   1.393   2.119

   4.646   1.401   2.088   6.257   1.398   2.080   2.465   1.405   2.077   3.200

   1.343   1.315   0.013   1.346   1.310   6.269   1.350   0.846   3.373   1.400

   2.097   3.142   1.357   1.043   0.040   1.405   0.668   3.150   1.380   2.080

   3.140   1.383   2.857   4.625   1.385   3.005   3.902   1.112   1.947   0.210

   1.116   1.896   4.426   1.112   1.878   5.254   1.109   1.948   3.180   1.089

   2.076   1.526   1.084   2.107   3.140   1.083   2.117   6.255   1.081   2.139

   3.138   1.084   2.099   6.271   1.109   1.913   4.207   1.109   1.915   2.077

   1.084   2.057   3.124   1.105   1.880   2.036   1.107   1.908   6.260   1.103

   1.945   4.107   1.105   1.926   3.463   1.108   1.918   1.334   1.104   1.887

   5.546
 GRADIENT          0.000   0.000  -0.000 269.111   0.000   0.000-151.654 491.494
   0.000-102.805 100.123 -11.233  80.125******** 125.116-509.5032221.356 247.707

-500.448******** 639.377 447.6781341.414  28.830 -70.471**************** 385.747

********  28.028 105.810-558.084********  49.642 806.114  95.849   0.773 -35.795

 -14.162  12.817 567.443  38.924 132.879 409.561  32.293-130.477 298.940  -7.664

 160.144 447.758  -0.065-107.358  -8.563 -31.094  82.595  -5.168 -48.121  85.836

-374.756   0.736 -27.705-195.032  -2.955  -6.136  77.638   0.478 -45.741 154.157

   2.673 -30.430  -1.856   4.823 -17.021 -14.737  -2.262  -0.757   3.821  -0.133

  -5.459   2.958  -7.141  -5.306 -11.197   5.514   0.514  -1.624  -1.704 -21.549

  45.083  40.227  -6.597 -12.538  -1.773 -35.243  31.178   4.586   7.533 -23.847

  -4.463  -4.632   6.031   0.583   3.472   1.443 -10.457   3.323   1.880  10.357

   0.715 -17.534  -0.224   4.261   9.603  -0.277   4.753  -2.597   2.803   2.646

   0.039  -2.747   3.796  -1.303  -0.869   4.076  -2.617   0.468   3.994  12.075

   0.348
       HoF         ACTUAL,  PREDICTED ENERGY CHANGE, RATIO
   546.2339568   451.0433188         -47.2133309   -9.5533043
 UNACCEPTABLE RATIO, REJECTING STEP, REDUCING DMAX TO 0.1000
  MIN SEARCH, CORRECT HESSIAN, TRYING PURE NR STEP
 LAMBDA THAT MINIMIZES ALONG ALL MODES =        0.000000000
 PURE NR-STEP HAS LENGTH   0.55987
 LAMBDA THAT MINIMIZES ALONG ALL MODES =     -123.784564520
 P-RFO-STEP   HAS LENGTH   0.43435
 LAMBDA THAT MINIMIZES ALONG ALL MODES =    -2351.487540777
 QA/TRIM-STEP HAS LENGTH   0.10000

  HEAT OF FORMATION        364.73565076674276    
 PARAMETERS       -0.001  -0.006  -0.002   2.276  -0.004  -0.001   9.975   1.675
   0.003   2.839   1.777   3.342   4.133   0.302   0.235   1.473   2.084   3.054

   1.517   1.891   2.372   1.389   2.130   6.200   1.501   1.866   1.025   1.422

   2.058   5.584   7.368   1.587   0.011   1.398   2.095   0.076   1.398   2.116

   4.644   1.400   2.090   6.256   1.404   2.091   2.463   1.410   2.079   3.201

   1.340   1.273   0.013   1.341   1.271   6.270   1.356   0.820   3.369   1.399

   2.099   3.141   1.358   1.039   0.044   1.399   0.655   3.151   1.385   2.091

   3.139   1.382   2.870   4.628   1.383   3.005   3.899   1.112   1.949   0.210

   1.115   1.900   4.423   1.112   1.877   5.256   1.110   1.950   3.179   1.087

   2.079   1.526   1.083   2.111   3.140   1.083   2.120   6.255   1.080   2.143

   3.137   1.084   2.103   6.271   1.110   1.917   4.204   1.109   1.918   2.080

   1.083   2.057   3.124   1.107   1.888   2.035   1.109   1.910   6.261   1.105

   1.948   4.105   1.107   1.928   3.462   1.109   1.919   1.334   1.106   1.895

   5.546
 GRADIENT          0.000   0.000  -0.000 110.303   0.000   0.000 -25.8421003.943
   0.000 -69.690 115.835  -6.056 -20.766******** 177.031-216.2451013.422 126.605

-222.459-897.791 321.026 237.533 780.224  -4.911 -12.653-868.958-645.808 155.730

-513.829  24.117  84.043-924.461********  80.929 683.543  45.581  31.520 -38.626

   4.024   0.079 495.015  12.258  44.563 191.497   8.060 -74.208 180.259  -4.473

  23.750 214.437   0.834-102.386 -47.663 -14.735  82.478 -46.550 -30.818 110.764

-355.937  -5.066 -32.739-171.351   3.248 -18.686  25.214   0.104 -68.920 138.874

   0.493 -29.878  -3.370   4.756 -18.072 -16.429  -2.362   0.048   4.143   1.131

  -5.985   2.406  -7.074  -3.639 -11.556   4.889   0.986  -0.724  -2.129 -11.537

  29.712  23.762  -5.139  -5.132   2.040 -17.439  14.660   2.013   2.496  -7.241

  -1.777  -5.360   8.714  -2.987   2.690   2.434  -8.072   2.379   2.665   8.053

  -2.532 -12.127  -0.028   4.914  10.313  -0.577   6.049  -1.758   3.442   3.055

   0.806  -3.098   4.633  -1.260  -0.681   4.852  -2.118   0.135   5.682  13.522

   0.392
       HoF         ACTUAL,  PREDICTED ENERGY CHANGE, RATIO
   364.7356508   269.5450128         -26.7286057  -10.0845145
 UNACCEPTABLE RATIO, REJECTING STEP, REDUCING DMAX TO 0.0500
  MIN SEARCH, CORRECT HESSIAN, TRYING PURE NR STEP
 LAMBDA THAT MINIMIZES ALONG ALL MODES =        0.000000000
 PURE NR-STEP HAS LENGTH   0.55987
 LAMBDA THAT MINIMIZES ALONG ALL MODES =     -123.784564520
 P-RFO-STEP   HAS LENGTH   0.43435
 LAMBDA THAT MINIMIZES ALONG ALL MODES =    -5340.763747367
 QA/TRIM-STEP HAS LENGTH   0.05000

  HEAT OF FORMATION        334.07213683304144    
 PARAMETERS       -0.001  -0.003  -0.001   2.254  -0.002  -0.000   9.977   1.681
   0.001   2.844   1.787   3.341   4.133   0.299   0.234   1.475   2.082   3.051

   1.518   1.901   2.370   1.384   2.122   6.201   1.504   1.875   1.028   1.425

   2.070   5.582   7.371   1.584   0.020   1.402   2.090   0.075   1.402   2.115

   4.643   1.399   2.092   6.255   1.407   2.096   2.462   1.413   2.081   3.201

   1.338   1.253   0.013   1.339   1.253   6.270   1.360   0.808   3.367   1.398

   2.100   3.140   1.358   1.037   0.045   1.396   0.648   3.151   1.389   2.096

   3.139   1.380   2.876   4.628   1.382   3.006   3.898   1.112   1.950   0.210

   1.114   1.901   4.421   1.112   1.876   5.257   1.111   1.951   3.178   1.086

   2.080   1.526   1.083   2.113   3.140   1.083   2.122   6.255   1.080   2.145

   3.137   1.084   2.104   6.271   1.110   1.918   4.203   1.110   1.920   2.081

   1.082   2.057   3.124   1.108   1.892   2.035   1.110   1.911   6.262   1.106

   1.950   4.105   1.108   1.929   3.462   1.111   1.919   1.334   1.108   1.899

   5.546
 GRADIENT          0.000   0.000  -0.000  -7.130   0.000   0.000  15.8861236.856
   0.000 -53.525  94.079  -4.316 -48.406-873.529 253.144-101.058 482.751  58.161

-112.191-417.120 150.856 162.073 536.574  -4.462   0.518-406.658-304.065  77.915

-235.730   8.425  46.229****************  77.448 541.246  29.378  44.515 -27.150

   7.970  -1.465 388.871   3.258  22.850  95.203   1.633 -35.896  94.537  -0.259

 -11.019  61.727   0.274 -76.087 -78.315  -6.288  89.194 -52.211 -22.573 109.873

-297.101  -9.226 -23.525-150.705   4.641 -25.137 -10.887  -0.043 -69.509 110.311

  -1.898 -30.110  -3.474   4.864 -20.094 -17.090  -2.361   0.064   4.674   1.372

  -6.082   2.291  -7.212  -3.318 -11.252   4.683   1.395  -0.311  -2.394  -8.973

  19.107  14.950  -4.629  -3.701   5.285 -10.240   7.568   1.134  -1.203  -1.236

  -0.950  -6.031   8.903  -6.321   1.829   2.940  -6.728   1.458   3.065   6.753

  -4.569  -8.912   0.006   5.073  11.133  -0.483   6.443  -1.275   3.329   3.218

   0.916  -3.064   4.935  -1.308  -0.618   5.185  -1.968   0.014   6.394  14.321

   0.420
       HoF         ACTUAL,  PREDICTED ENERGY CHANGE, RATIO
   334.0721368   238.8814989         -14.1799033  -16.8464830
 UNACCEPTABLE RATIO, REJECTING STEP, REDUCING DMAX TO 0.0250
  MIN SEARCH, CORRECT HESSIAN, TRYING PURE NR STEP
 LAMBDA THAT MINIMIZES ALONG ALL MODES =        0.000000000
 PURE NR-STEP HAS LENGTH   0.55987
 LAMBDA THAT MINIMIZES ALONG ALL MODES =     -123.784564520
 P-RFO-STEP   HAS LENGTH   0.43435
 LAMBDA THAT MINIMIZES ALONG ALL MODES =   -11341.359755568
 QA/TRIM-STEP HAS LENGTH   0.02500

  HEAT OF FORMATION        322.20577012856666    
 PARAMETERS       -0.000  -0.001  -0.000   2.242  -0.001  -0.000   9.978   1.684
   0.001   2.847   1.792   3.341   4.133   0.297   0.234   1.476   2.081   3.050

   1.518   1.906   2.368   1.381   2.118   6.201   1.506   1.879   1.029   1.427

   2.075   5.581   7.373   1.583   0.024   1.404   2.088   0.075   1.403   2.114

   4.643   1.399   2.093   6.255   1.409   2.098   2.462   1.415   2.081   3.201

   1.336   1.244   0.013   1.337   1.244   6.270   1.362   0.802   3.366   1.398

   2.100   3.140   1.359   1.036   0.046   1.394   0.645   3.151   1.390   2.098

   3.139   1.380   2.879   4.629   1.381   3.006   3.897   1.112   1.951   0.210

   1.114   1.902   4.421   1.111   1.875   5.258   1.111   1.951   3.178   1.085

   2.081   1.526   1.082   2.114   3.140   1.083   2.123   6.255   1.080   2.145

   3.137   1.083   2.105   6.271   1.111   1.919   4.202   1.110   1.921   2.081

   1.082   2.057   3.124   1.109   1.894   2.035   1.111   1.911   6.262   1.106

   1.950   4.104   1.109   1.929   3.462   1.111   1.920   1.334   1.109   1.901

   5.546
 GRADIENT          0.000   0.000  -0.000 -79.007   0.000   0.000  64.1841834.831
   0.000 -28.238  86.034   2.122 -67.371-267.060 818.372 -48.130 228.329  27.214

 -59.037-187.888  69.628 116.447 356.292   3.984   8.106-184.038-143.155  43.134

 -98.158  -0.274 -21.354****************  73.358 409.263  22.941  36.551 -34.929

  32.598  15.986 302.059  -2.066  16.568  52.033  -0.573 -14.586  44.551   1.383

 -17.992 -27.008   0.059 -55.918-101.602  -2.711  99.646 -54.212 -33.919  93.420

-228.482 -15.355 -22.139-116.407   6.565 -28.409 -31.684  -0.110 -55.476  81.465

  -4.702 -29.489  -5.254   5.244 -21.139 -17.127  -2.449  -0.212   4.968   1.153

  -6.371   2.043  -7.178  -3.469 -11.064   4.650   1.583  -0.051  -2.584  -9.270

  12.463   8.362  -4.781  -1.339  10.139  -7.059   4.288   0.776  -3.257   1.414

  -0.554  -6.211   8.108 -10.424   1.282   3.190  -6.029   0.888   3.272   6.064

  -6.279  -7.163  -0.155   5.323  11.653  -0.404   6.680  -0.580   3.264   3.314

   0.507  -3.032   5.122  -1.271  -0.695   5.371  -2.134   0.087   6.784  14.860

   0.440
       HoF         ACTUAL,  PREDICTED ENERGY CHANGE, RATIO
   322.2057701   227.0151322          -7.2985395  -31.1041865
 UNACCEPTABLE RATIO, REJECTING STEP, REDUCING DMAX TO 0.0125
  MIN SEARCH, CORRECT HESSIAN, TRYING PURE NR STEP
 LAMBDA THAT MINIMIZES ALONG ALL MODES =        0.000000000
 PURE NR-STEP HAS LENGTH   0.55987
 LAMBDA THAT MINIMIZES ALONG ALL MODES =     -123.784564520
 P-RFO-STEP   HAS LENGTH   0.43435
 LAMBDA THAT MINIMIZES ALONG ALL MODES =   -23354.026186491
 QA/TRIM-STEP HAS LENGTH   0.01250

  HEAT OF FORMATION        276.17116419682861    
 PARAMETERS       -0.000  -0.001  -0.000   2.236  -0.000  -0.000   9.979   1.685
   0.000   2.849   1.795   3.341   4.133   0.296   0.233   1.476   2.080   3.050

   1.518   1.908   2.368   1.379   2.116   6.201   1.507   1.881   1.030   1.428

   2.078   5.580   7.374   1.582   0.026   1.405   2.087   0.075   1.404   2.114

   4.643   1.399   2.093   6.255   1.409   2.099   2.462   1.416   2.082   3.201

   1.336   1.239   0.013   1.336   1.240   6.270   1.363   0.799   3.366   1.398

   2.100   3.140   1.359   1.035   0.046   1.393   0.644   3.152   1.391   2.100

   3.139   1.379   2.880   4.629   1.381   3.006   3.897   1.112   1.951   0.210

   1.114   1.903   4.420   1.111   1.875   5.258   1.112   1.952   3.178   1.084

   2.081   1.526   1.082   2.114   3.140   1.083   2.123   6.255   1.080   2.146

   3.137   1.083   2.106   6.271   1.111   1.920   4.202   1.110   1.921   2.082

   1.082   2.057   3.124   1.109   1.895   2.035   1.111   1.911   6.262   1.107

   1.951   4.104   1.109   1.929   3.462   1.112   1.920   1.334   1.109   1.902

   5.546
 GRADIENT          0.000   0.000  -0.000-118.478   0.000   0.0001209.975********
   0.000  11.371  88.500   7.478 -39.860********5511.639 -24.178 100.565  17.371

 -31.446 -71.647  29.329  44.713 187.247 116.633  12.776 -71.747 -63.386  26.328

 -27.626  -5.054************************  86.284 261.771 128.865   9.315 -72.616

 187.458   4.586 205.784  66.957  14.598  31.692  -1.375  -2.792  17.305   2.114

 -19.232 -74.416  -0.088 -43.622-114.847  -1.054  89.569 -24.743 -75.576  59.926

-123.633  -2.701 -24.050 -62.786   2.975 -29.852 -42.772  -0.055 -22.846  47.998

  -0.861 -26.647  -1.348   5.709 -22.363 -16.419  -2.667  -0.500   4.236   0.634

  -7.151   1.123  -6.510  -4.160 -11.011   4.533   1.625   0.234  -2.712 -12.908

   9.989  16.639  -5.557   3.847  11.092  -5.428   2.619   0.557  -4.321   2.653

  -0.240  -6.142   4.172  -3.506   0.963   3.313  -5.686   0.640   3.364   5.705

  -7.568  -6.349  -0.403   5.782  13.061  -0.201   6.331  -0.338   2.986   3.526

   0.680  -2.881   5.097  -0.956  -0.865   5.425  -2.691   0.325   6.958  15.452

   0.450
       HoF         ACTUAL,  PREDICTED ENERGY CHANGE, RATIO
   276.1711642   180.9805262          -3.7020196  -48.8869717
 UNACCEPTABLE RATIO, REJECTING STEP, REDUCING DMAX TO 0.0062
  MIN SEARCH, CORRECT HESSIAN, TRYING PURE NR STEP
 LAMBDA THAT MINIMIZES ALONG ALL MODES =        0.000000000
 PURE NR-STEP HAS LENGTH   0.55987
 LAMBDA THAT MINIMIZES ALONG ALL MODES =     -123.784564520
 P-RFO-STEP   HAS LENGTH   0.43435
 LAMBDA THAT MINIMIZES ALONG ALL MODES =   -47385.196209583
 QA/TRIM-STEP HAS LENGTH   0.00625

  HEAT OF FORMATION        158.32430151315930    
 PARAMETERS       -0.000  -0.000  -0.000   2.233  -0.000  -0.000   9.980   1.686
   0.000   2.849   1.796   3.341   4.133   0.296   0.233   1.476   2.080   3.049

   1.518   1.909   2.368   1.378   2.115   6.201   1.507   1.882   1.030   1.429

   2.079   5.580   7.374   1.582   0.027   1.405   2.086   0.075   1.405   2.114

   4.643   1.399   2.093   6.255   1.410   2.100   2.462   1.416   2.082   3.201

   1.336   1.236   0.013   1.336   1.237   6.270   1.363   0.797   3.366   1.398

   2.100   3.140   1.359   1.035   0.047   1.392   0.643   3.152   1.392   2.100

   3.139   1.379   2.881   4.629   1.380   3.006   3.897   1.112   1.951   0.210

   1.114   1.903   4.420   1.111   1.875   5.258   1.112   1.952   3.178   1.084

   2.081   1.526   1.082   2.115   3.140   1.083   2.123   6.255   1.080   2.146

   3.137   1.083   2.106   6.271   1.111   1.920   4.202   1.110   1.921   2.082

   1.082   2.057   3.124   1.109   1.896   2.035   1.112   1.911   6.262   1.107

   1.951   4.104   1.110   1.929   3.462   1.112   1.920   1.334   1.109   1.903

   5.546
 GRADIENT          0.000  -0.000  -0.000-138.960   0.000   0.0002957.320********
   0.000  29.602  66.355  14.877   9.179********5504.414 -10.683  34.185   5.633

 -19.807 -16.143  10.463  45.286 159.549 179.939  13.520 -18.946 -22.623  18.972

   6.192  -6.011************************  78.620 213.652 197.594 -14.065 -38.720

 252.687 -32.352 137.742 111.458  13.395  21.275  -1.699   4.260   2.768   2.364

 -20.081 -98.764  -0.165 -37.003-121.251  -0.332  29.719 -15.164 -86.480   9.433

 -49.183  12.794 -11.288 -29.053   6.386 -30.311 -48.518  -0.028   7.400  19.041

   2.033 -22.867   7.619   6.722 -23.307 -17.247  -2.609  -0.989   3.540   0.472

  -7.340   1.759  -6.336  -4.278 -11.043   4.561   1.652   0.247  -2.741 -12.235

   4.432  13.972  -6.530   4.496   5.774  -4.585   1.789   0.451  -4.591   3.097

  -0.126  -6.405   2.481   2.556   0.822   3.374  -5.532   0.533   3.410   5.543

  -7.286  -5.653  -0.497   6.302  15.656  -0.157   5.968  -1.392   2.746   3.605

   1.317  -2.702   5.040  -1.068  -0.858   5.532  -2.633   0.331   7.053  15.791

   0.457
       HoF         ACTUAL,  PREDICTED ENERGY CHANGE, RATIO
   158.3243015    63.1336635          -1.8642735  -33.8650213
 UNACCEPTABLE RATIO, REJECTING STEP, REDUCING DMAX TO 0.0031
  MIN SEARCH, CORRECT HESSIAN, TRYING PURE NR STEP
 LAMBDA THAT MINIMIZES ALONG ALL MODES =        0.000000000
 PURE NR-STEP HAS LENGTH   0.55987
 LAMBDA THAT MINIMIZES ALONG ALL MODES =     -123.784564520
 P-RFO-STEP   HAS LENGTH   0.43435
 LAMBDA THAT MINIMIZES ALONG ALL MODES =   -95450.477582318
 QA/TRIM-STEP HAS LENGTH   0.00312

  HEAT OF FORMATION        108.23360417864751    
 PARAMETERS       -0.000  -0.000  -0.000   2.231  -0.000  -0.000   9.980   1.687
   0.000   2.850   1.796   3.341   4.133   0.296   0.233   1.476   2.080   3.049

   1.518   1.910   2.368   1.378   2.114   6.201   1.507   1.883   1.030   1.429

   2.080   5.580   7.375   1.582   0.028   1.406   2.086   0.075   1.405   2.114

   4.643   1.398   2.093   6.254   1.410   2.100   2.462   1.416   2.082   3.201

   1.335   1.235   0.013   1.336   1.236   6.270   1.364   0.797   3.366   1.398

   2.100   3.140   1.359   1.035   0.047   1.392   0.643   3.152   1.392   2.100

   3.139   1.379   2.881   4.629   1.380   3.006   3.897   1.112   1.951   0.210

   1.114   1.903   4.420   1.111   1.875   5.258   1.112   1.952   3.178   1.084

   2.081   1.526   1.082   2.115   3.140   1.083   2.123   6.255   1.080   2.146

   3.137   1.083   2.106   6.271   1.111   1.920   4.202   1.110   1.921   2.082

   1.082   2.057   3.124   1.109   1.896   2.035   1.112   1.911   6.262   1.107

   1.951   4.104   1.110   1.929   3.462   1.112   1.920   1.334   1.109   1.903

   5.546
 GRADIENT          0.000  -0.000  -0.000-149.459   0.000   0.0001575.168********
   0.000  28.486  48.208  11.059   7.567********1542.928  -4.251   1.424  -2.183

 -14.080  10.993   0.077  -7.348  38.192  86.674  14.073   7.934  -3.202  15.487

  23.347  -7.018************************  44.445  76.874  92.413  -9.677 -15.992

 117.034 -30.839  49.353  54.676  12.870  16.237  -1.813   7.902  -4.696   2.527

 -20.326-111.109  -0.165 -33.517-124.577   0.011  17.486 -60.117 -48.036  -7.996

 -26.781   9.522  -4.190 -25.352   7.897 -30.555 -51.452  -0.044  11.422  12.662

   1.146 -21.909  10.699   7.111 -23.036 -18.329  -2.521  -1.163   2.988   0.608

  -7.475   2.393  -6.299  -4.173 -11.133   4.582   1.623   0.168  -2.704 -12.135

   2.769   7.067  -7.012   4.602   3.018  -4.183   1.379   0.417  -4.785   3.344

  -0.082  -6.285   1.820   1.576   0.753   3.402  -5.451   0.456   3.432   5.467

  -7.020  -5.356  -0.307   6.497  16.414  -0.208   5.889  -1.897   2.820   3.529

   1.589  -2.764   5.068  -1.246  -0.795   5.612  -2.309   0.234   7.211  15.868

   0.456
       HoF         ACTUAL,  PREDICTED ENERGY CHANGE, RATIO
   108.2336042    13.0429662          -0.9354623  -13.9428025
 UNACCEPTABLE RATIO, REJECTING STEP, REDUCING DMAX TO 0.0016
  MIN SEARCH, CORRECT HESSIAN, TRYING PURE NR STEP
 LAMBDA THAT MINIMIZES ALONG ALL MODES =        0.000000000
 PURE NR-STEP HAS LENGTH   0.55987
 LAMBDA THAT MINIMIZES ALONG ALL MODES =     -123.784564520
 P-RFO-STEP   HAS LENGTH   0.43435
 LAMBDA THAT MINIMIZES ALONG ALL MODES =  -191582.516361802
 QA/TRIM-STEP HAS LENGTH   0.00156

  HEAT OF FORMATION        97.819632993167033    
 PARAMETERS       -0.000  -0.000  -0.000   2.230  -0.000  -0.000   9.980   1.687
   0.000   2.850   1.797   3.341   4.133   0.295   0.233   1.476   2.080   3.049

   1.518   1.910   2.368   1.378   2.114   6.201   1.507   1.883   1.031   1.429

   2.080   5.580   7.375   1.582   0.028   1.406   2.086   0.075   1.405   2.113

   4.643   1.398   2.093   6.254   1.410   2.101   2.462   1.417   2.082   3.201

   1.335   1.235   0.013   1.336   1.236   6.270   1.364   0.796   3.366   1.398

   2.100   3.140   1.359   1.035   0.047   1.392   0.643   3.152   1.392   2.101

   3.139   1.379   2.882   4.629   1.380   3.006   3.897   1.112   1.951   0.210

   1.114   1.903   4.420   1.111   1.875   5.258   1.112   1.952   3.178   1.084

   2.081   1.526   1.082   2.115   3.140   1.083   2.123   6.255   1.080   2.146

   3.137   1.083   2.106   6.271   1.111   1.920   4.202   1.110   1.921   2.082

   1.082   2.057   3.124   1.109   1.896   2.035   1.112   1.911   6.262   1.107

   1.951   4.104   1.110   1.929   3.462   1.112   1.920   1.334   1.109   1.903

   5.546
 GRADIENT          0.000   0.000  -0.000-154.790   0.000   0.000 704.520********
   0.000  27.919  41.703   6.159  -2.0006561.188 426.249  -0.972 -14.624  -6.537

 -11.107  24.588  -5.039 -40.315 -40.405  40.326  14.549  21.622   6.609  13.576

  32.117  -7.567-922.689****************  26.141  -5.369  38.139   5.284 -25.767

  49.665 -21.895   1.872  23.617  12.665  13.802  -1.872   9.612  -8.424   2.592

 -20.304-117.369  -0.160 -31.746-126.400   0.176  17.743 -80.040 -27.622 -12.906

 -19.448   5.165  -2.088 -24.527   7.491 -30.700 -52.935  -0.056  12.046  10.596

   0.684 -21.670  11.642   7.223 -22.888 -18.871  -2.478  -1.221   2.779   0.718

  -7.488   2.803  -6.328  -4.102 -11.157   4.590   1.618   0.111  -2.685 -12.155

   2.356   3.679  -7.153   4.638   1.657  -3.997   1.183   0.402  -4.903   3.484

  -0.064  -6.229   1.650   0.709   0.718   3.415  -5.409   0.414   3.442   5.427

  -6.983  -5.228  -0.218   6.549  16.617  -0.230   5.870  -2.070   2.860   3.492

   1.684  -2.795   5.083  -1.348  -0.775   5.642  -2.143   0.195   7.280  15.908

   0.454
       HoF         ACTUAL,  PREDICTED ENERGY CHANGE, RATIO
    97.8196330     2.6289950          -0.4685637   -5.6107522
 UNACCEPTABLE RATIO, REJECTING STEP, REDUCING DMAX TO 0.0008
  MIN SEARCH, CORRECT HESSIAN, TRYING PURE NR STEP
 LAMBDA THAT MINIMIZES ALONG ALL MODES =        0.000000000
 PURE NR-STEP HAS LENGTH   0.55987
 LAMBDA THAT MINIMIZES ALONG ALL MODES =     -123.784564520
 P-RFO-STEP   HAS LENGTH   0.43435
 LAMBDA THAT MINIMIZES ALONG ALL MODES =  -383847.333238877
 QA/TRIM-STEP HAS LENGTH   0.00078

  HEAT OF FORMATION        95.690482733931276    
 PARAMETERS       -0.000  -0.000  -0.000   2.230  -0.000  -0.000   9.980   1.687
   0.000   2.850   1.797   3.341   4.133   0.295   0.233   1.476   2.080   3.049

   1.518   1.910   2.368   1.377   2.114   6.201   1.507   1.883   1.031   1.429

   2.081   5.580   7.375   1.582   0.028   1.406   2.086   0.075   1.405   2.113

   4.643   1.398   2.093   6.254   1.410   2.101   2.462   1.417   2.082   3.201

   1.335   1.234   0.013   1.336   1.236   6.270   1.364   0.796   3.366   1.398

   2.100   3.140   1.359   1.035   0.047   1.392   0.642   3.152   1.392   2.101

   3.139   1.379   2.882   4.629   1.380   3.006   3.897   1.112   1.951   0.210

   1.114   1.903   4.420   1.111   1.875   5.258   1.112   1.952   3.178   1.084

   2.081   1.526   1.082   2.115   3.140   1.083   2.123   6.255   1.080   2.146

   3.137   1.083   2.106   6.271   1.111   1.920   4.202   1.110   1.921   2.082

   1.082   2.057   3.124   1.109   1.896   2.035   1.112   1.912   6.262   1.107

   1.951   4.104   1.110   1.929   3.462   1.112   1.920   1.334   1.109   1.903

   5.546
 GRADIENT          0.000   0.000  -0.000-157.483   0.000   0.000 332.768********
   0.000  27.905  39.627   3.303  -5.1323039.524 141.533   0.662 -22.486  -8.713

  -9.584  31.377  -7.545 -49.819 -64.075  21.945  14.840  28.491  11.519  12.581

  36.529  -7.852-420.4246968.387********  21.059 -29.439  16.572  10.272 -29.127

  22.027 -18.969 -12.196  10.467  12.580  12.612  -1.906  10.416 -10.266   2.620

 -20.237-120.536  -0.157 -30.873-127.382   0.257  18.214 -85.716 -18.062 -14.102

 -16.889   2.648  -1.552 -24.127   7.088 -30.787 -53.677  -0.062  12.181   9.744

   0.475 -21.612  11.965   7.249 -22.834 -19.124  -2.460  -1.242   2.704   0.776

  -7.480   3.011  -6.355  -4.067 -11.164   4.592   1.619   0.081  -2.678 -12.172

   2.246   2.029  -7.186   4.657   1.020  -3.907   1.088   0.395  -4.970   3.560

  -0.054  -6.209   1.612   0.250   0.700   3.422  -5.386   0.392   3.448   5.406

  -7.000  -5.168  -0.179   6.562  16.670  -0.239   5.867  -2.135   2.876   3.480

   1.723  -2.805   5.090  -1.399  -0.771   5.654  -2.069   0.182   7.308  15.930

   0.452
       HoF         ACTUAL,  PREDICTED ENERGY CHANGE, RATIO
    95.6904827     0.4998448          -0.2344902   -2.1316236
 UNACCEPTABLE RATIO, REJECTING STEP, REDUCING DMAX TO 0.0004
  MIN SEARCH, CORRECT HESSIAN, TRYING PURE NR STEP
 LAMBDA THAT MINIMIZES ALONG ALL MODES =        0.000000000
 PURE NR-STEP HAS LENGTH   0.55987
 LAMBDA THAT MINIMIZES ALONG ALL MODES =     -123.784564520
 P-RFO-STEP   HAS LENGTH   0.43435
 LAMBDA THAT MINIMIZES ALONG ALL MODES =  -768377.336972008
 QA/TRIM-STEP HAS LENGTH   0.00039

  HEAT OF FORMATION        95.253136774583254    
 PARAMETERS       -0.000  -0.000  -0.000   2.230  -0.000  -0.000   9.980   1.687
   0.000   2.850   1.797   3.341   4.133   0.295   0.233   1.477   2.080   3.049

   1.518   1.910   2.367   1.377   2.114   6.201   1.507   1.883   1.031   1.429

   2.081   5.580   7.375   1.582   0.028   1.406   2.086   0.075   1.405   2.113

   4.643   1.398   2.093   6.254   1.410   2.101   2.462   1.417   2.082   3.201

   1.335   1.234   0.013   1.336   1.235   6.270   1.364   0.796   3.366   1.398

   2.100   3.140   1.359   1.035   0.047   1.392   0.642   3.152   1.392   2.101

   3.139   1.379   2.882   4.629   1.380   3.006   3.897   1.112   1.951   0.210

   1.114   1.903   4.420   1.111   1.875   5.258   1.112   1.952   3.178   1.084

   2.081   1.526   1.082   2.115   3.140   1.083   2.123   6.255   1.080   2.146

   3.137   1.083   2.106   6.271   1.111   1.920   4.202   1.110   1.921   2.082

   1.082   2.057   3.124   1.109   1.896   2.035   1.112   1.912   6.262   1.107

   1.951   4.104   1.110   1.929   3.462   1.112   1.920   1.334   1.109   1.903

   5.546
 GRADIENT          0.000   0.000  -0.000-158.831   0.000   0.000 172.274********
   0.000  27.988  38.894   1.737  -5.9221519.288  56.443   1.470 -26.337  -9.786

  -8.827  34.727  -8.760 -52.154 -70.385  14.126  14.992  31.878  13.956  12.085

  38.711  -7.990-203.5843533.210********  19.855 -35.616   7.459  11.545 -29.641

  10.121 -18.235 -16.039   4.623  12.537  12.028  -1.923  10.797 -11.169   2.628

 -20.187-122.125  -0.155 -30.447-127.893   0.295  18.420 -87.274 -13.559 -14.402

 -15.859   1.330  -1.410 -23.898   6.816 -30.836 -54.045  -0.065  12.236   9.347

   0.369 -21.596  12.118   7.251 -22.816 -19.233  -2.453  -1.251   2.676   0.807

  -7.473   3.108  -6.372  -4.049 -11.168   4.593   1.620   0.068  -2.676 -12.182

   2.213   1.300  -7.194   4.666   0.719  -3.862   1.041   0.392  -5.007   3.598

  -0.049  -6.201   1.603   0.019   0.691   3.425  -5.375   0.381   3.451   5.395

  -7.017  -5.138  -0.165   6.565  16.684  -0.244   5.867  -2.164   2.882   3.477

   1.742  -2.808   5.094  -1.422  -0.769   5.658  -2.039   0.177   7.320  15.940

   0.451
       HoF         ACTUAL,  PREDICTED ENERGY CHANGE, RATIO
    95.2531368     0.0624988          -0.1172972   -0.5328245
 UNACCEPTABLE RATIO, REJECTING STEP, REDUCING DMAX TO 0.0002
  MIN SEARCH, CORRECT HESSIAN, TRYING PURE NR STEP
 LAMBDA THAT MINIMIZES ALONG ALL MODES =        0.000000000
 PURE NR-STEP HAS LENGTH   0.55987
 LAMBDA THAT MINIMIZES ALONG ALL MODES =     -123.784564520
 P-RFO-STEP   HAS LENGTH   0.43435
 NUMERICAL PROBLEMS IN BRACKETING LAMBDA   200.00000000047075       -1000000.0000000000        200.00000000027075        5.1978552222146872E-008   3.9969425323784870E+020
  GOING FOR FIXED LEVEL SHIFTED NR STEP...
 LAMBDA THAT MINIMIZES ALONG ALL MODES =      190.000000000
 P-RFO-STEP   HAS LENGTH   0.86869
     CALCULATED STEP SIZE TOO LARGE, SCALED WITH  0.00022

  HEAT OF FORMATION        95.197358051605988    
 PARAMETERS        0.000  -0.000  -0.000   2.230  -0.000   0.000   9.980   1.687
   0.000   2.850   1.797   3.341   4.133   0.295   0.233   1.477   2.080   3.049

   1.518   1.910   2.367   1.377   2.114   6.201   1.507   1.883   1.031   1.429

   2.081   5.580   7.375   1.582   0.028   1.406   2.085   0.075   1.405   2.113

   4.643   1.398   2.093   6.254   1.410   2.101   2.462   1.417   2.082   3.201

   1.335   1.234   0.013   1.336   1.235   6.270   1.364   0.796   3.366   1.398

   2.100   3.140   1.359   1.035   0.047   1.392   0.642   3.152   1.392   2.101

   3.139   1.379   2.882   4.629   1.380   3.006   3.897   1.112   1.951   0.210

   1.114   1.903   4.420   1.111   1.875   5.258   1.112   1.952   3.178   1.084

   2.081   1.526   1.082   2.115   3.140   1.083   2.123   6.255   1.080   2.146

   3.137   1.083   2.106   6.271   1.111   1.920   4.202   1.110   1.921   2.082

   1.082   2.057   3.124   1.109   1.896   2.035   1.112   1.912   6.262   1.107

   1.951   4.104   1.110   1.929   3.462   1.112   1.920   1.334   1.109   1.903

   5.546
 GRADIENT          0.000   0.000  -0.000-160.071   0.000   0.000  61.194********
   0.000  28.136  38.442   0.742  -6.170 467.520  12.890   2.113 -29.318 -10.563

  -8.187  37.405  -9.670 -52.993 -73.139   8.604  15.176  34.607  15.910  11.681

  40.495  -8.104 -53.5551122.975-398.339  19.521 -38.060   1.119  11.915 -29.492

   1.831 -18.003 -17.787   0.547  12.532  11.599  -1.940  11.128 -11.878   2.635

 -20.110-123.555  -0.148 -30.077-128.503   0.325  18.566 -87.917 -10.512 -14.494

 -15.042   0.441  -1.349 -23.648   6.671 -30.882 -54.404  -0.067  12.270   8.985

   0.295 -21.592  12.188   7.253 -22.806 -19.326  -2.446  -1.256   2.656   0.827

  -7.468   3.187  -6.385  -4.038 -11.168   4.593   1.623   0.058  -2.671 -12.192

   2.195   0.759  -7.198   4.676   0.497  -3.827   1.004   0.390  -5.032   3.626

  -0.046  -6.197   1.602  -0.143   0.682   3.429  -5.363   0.371   3.455   5.383

  -7.039  -5.110  -0.151   6.569  16.692  -0.246   5.869  -2.182   2.885   3.475

   1.753  -2.810   5.097  -1.443  -0.769   5.662  -2.014   0.173   7.330  15.949

   0.450
       HoF         ACTUAL,  PREDICTED ENERGY CHANGE, RATIO
    95.1973581     0.0067201          -0.1097468   -0.0612326
 UNACCEPTABLE RATIO, REJECTING STEP, REDUCING DMAX TO 0.0001

     TRUST RADIUS NOW LESS THAN  0.00010 OPTIMIZATION TERMINATING
      THE GEOMETRY MAY NOT BE COMPLETELY OPTIMIZED
      (TO CONTINUE, ADD 'LET DDMIN=0.0' TO THE KEYWORD LINE)

  HEAT OF FORMATION        95.190757742893766    

 -------------------------------------------------------------------------------
 PM7 CHARGE=+1 EF NOXYZ PRNT=2 PDBOUT COMPFG GRAPHF
 16,17-dimethoxy-5,7-dioxa-13-azoniapentacyclo[11.8.0.02,10.04,8.015,20]henicosa-1(13),2,4(8),9,14,16,18,20-octaene



     GEOMETRY OPTIMISED USING EIGENVECTOR FOLLOWING (EF).     
     SCF FIELD WAS ACHIEVED                                   


                              PM7 CALCULATION
                                                       MOPAC v22.0.6 Linux
                                                       Sun Oct 12 19:45:58 2025




          FINAL HEAT OF FORMATION =         95.19076 KCAL/MOL =     398.27813 KJ/MOL


          COSMO AREA              =        339.62 SQUARE ANGSTROMS
          COSMO VOLUME            =        374.29 CUBIC ANGSTROMS

          GRADIENT NORM           =        318.25709          =       48.53375 PER ATOM
          IONIZATION POTENTIAL    =         11.306760 EV
          HOMO LUMO ENERGIES (EV) =        -11.307 -4.926
          NO. OF FILLED LEVELS    =         63
          MOLECULAR WEIGHT        =        336.3665         POINT GROUP:  C1  

          MOLECULAR DIMENSIONS (Angstroms)

            Atom       Atom       Distance
            H    43    H    36    14.70382
            H    34    H    29     6.64135
            H    27    H    28     3.03589


          SCF CALCULATIONS        =         13

          WALL-CLOCK TIME         =      0.375 SECONDS
          COMPUTATION TIME        =      0.366 SECONDS



       FINAL  POINT  AND  DERIVATIVES

   PARAMETER     ATOM    TYPE            VALUE        GRADIENT
      1          1  O    CARTESIAN X     0.000000      0.000006  KCAL/ANGSTROM
      2          1  O    CARTESIAN Y     0.000000      0.000011  KCAL/ANGSTROM
      3          1  O    CARTESIAN Z     0.000000     -0.000005  KCAL/ANGSTROM
      4          2  O    BOND            2.229670   -160.174496  KCAL/ANGSTROM
      5          2  O    ANGLE           0.000000      0.000000  KCAL/RADIAN  
      6          2  O    DIHEDRAL        0.000000      0.000000  KCAL/RADIAN  
      7          3  O    BOND            9.979889      9.213137  KCAL/ANGSTROM
      8          3  O    ANGLE          96.661283     42.156694  KCAL/RADIAN  
      9          3  O    DIHEDRAL        0.000000      0.000000  KCAL/RADIAN  
     10          4  O    BOND            2.850199     28.052747  KCAL/ANGSTROM
     11          4  O    ANGLE         102.955463     38.394953  KCAL/RADIAN  
     12          4  O    DIHEDRAL      191.430081      0.366129  KCAL/RADIAN  
     13          5  N    BOND            4.132789     -6.082090  KCAL/ANGSTROM
     14          5  N    ANGLE          16.925426    -25.460226  KCAL/RADIAN  
     15          5  N    DIHEDRAL       13.371819     -3.339933  KCAL/RADIAN  
     16          6  C    BOND            1.476517      2.290439  KCAL/ANGSTROM
     17          6  C    ANGLE         119.163687    -30.223765  KCAL/RADIAN  
     18          6  C    DIHEDRAL      174.696840    -10.848857  KCAL/RADIAN  
     19          7  C    BOND            1.517724     -8.046638  KCAL/ANGSTROM
     20          7  C    ANGLE         109.446844     38.134578  KCAL/RADIAN  
     21          7  C    DIHEDRAL      135.646454     -9.991140  KCAL/RADIAN  
     22          8  C    BOND            1.377390    -52.836288  KCAL/ANGSTROM
     23          8  C    ANGLE         121.111649    -72.687989  KCAL/RADIAN  
     24          8  C    DIHEDRAL      355.315826      6.088270  KCAL/RADIAN  
     25          9  C    BOND            1.507487     15.161580  KCAL/ANGSTROM
     26          9  C    ANGLE         107.902199     35.337120  KCAL/RADIAN  
     27          9  C    DIHEDRAL       59.050172     16.428667  KCAL/RADIAN  
     28         10  C    BOND            1.429010     11.566582  KCAL/ANGSTROM
     29         10  C    ANGLE         119.223091     40.944152  KCAL/RADIAN  
     30         10  C    DIHEDRAL      319.702396     -8.134322  KCAL/RADIAN  
     31         11  C    BOND            7.374764     16.741437  KCAL/ANGSTROM
     32         11  C    ANGLE          90.614340    -15.749114  KCAL/RADIAN  
     33         11  C    DIHEDRAL        1.617562     48.375153  KCAL/RADIAN  
     34         12  C    BOND            1.405887     19.583127  KCAL/ANGSTROM
     35         12  C    ANGLE         119.489157    -37.568958  KCAL/RADIAN  
     36         12  C    DIHEDRAL        4.274398     -1.657397  KCAL/RADIAN  
     37         13  C    BOND            1.405327     11.890000  KCAL/ANGSTROM
     38         13  C    ANGLE         121.091225    -29.367170  KCAL/RADIAN  
     39         13  C    DIHEDRAL      265.996095     -2.007857  KCAL/RADIAN  
     40         14  C    BOND            1.398409    -18.109144  KCAL/ANGSTROM
     41         14  C    ANGLE         119.939287    -17.560710  KCAL/RADIAN  
     42         14  C    DIHEDRAL      358.353096     -1.225463  KCAL/RADIAN  
     43         15  C    BOND            1.410281     12.508489  KCAL/ANGSTROM
     44         15  C    ANGLE         120.359908     11.447719  KCAL/RADIAN  
     45         15  C    DIHEDRAL      141.045610     -1.939744  KCAL/RADIAN  
     46         16  C    BOND            1.416633     11.198723  KCAL/ANGSTROM
     47         16  C    ANGLE         119.279751    -12.096938  KCAL/RADIAN  
     48         16  C    DIHEDRAL      183.413567      2.639856  KCAL/RADIAN  
     49         17  C    BOND            1.335305    -20.139224  KCAL/ANGSTROM
     50         17  C    ANGLE          70.707871   -123.702115  KCAL/RADIAN  
     51         17  C    DIHEDRAL        0.733188     -0.153276  KCAL/RADIAN  
     52         18  C    BOND            1.335526    -30.008283  KCAL/ANGSTROM
     53         18  C    ANGLE          70.778613   -128.384130  KCAL/RADIAN  
     54         18  C    DIHEDRAL      359.237475      0.334267  KCAL/RADIAN  
     55         19  C    BOND            1.364000     18.567081  KCAL/ANGSTROM
     56         19  C    ANGLE          45.596209    -87.873225  KCAL/RADIAN  
     57         19  C    DIHEDRAL      192.831461     -9.158355  KCAL/RADIAN  
     58         20  C    BOND            1.397659    -14.410203  KCAL/ANGSTROM
     59         20  C    ANGLE         120.331783    -15.137481  KCAL/RADIAN  
     60         20  C    DIHEDRAL      179.915706      0.064243  KCAL/RADIAN  
     61         21  C    BOND            1.359132     -1.359584  KCAL/ANGSTROM
     62         21  C    ANGLE          59.297857    -23.787180  KCAL/RADIAN  
     63         21  C    DIHEDRAL        2.676067      6.630609  KCAL/RADIAN  
     64         22  C    BOND            1.391882    -30.880630  KCAL/ANGSTROM
     65         22  C    ANGLE          36.802433    -54.416211  KCAL/RADIAN  
     66         22  C    DIHEDRAL      180.573547     -0.068391  KCAL/RADIAN  
     67         23  C    BOND            1.392034     12.185388  KCAL/ANGSTROM
     68         23  C    ANGLE         120.359573      9.038183  KCAL/RADIAN  
     69         23  C    DIHEDRAL      179.828063      0.281816  KCAL/RADIAN  
     70         24  C    BOND            1.379060    -21.594112  KCAL/ANGSTROM
     71         24  C    ANGLE         165.111777     12.206741  KCAL/RADIAN  
     72         24  C    DIHEDRAL      265.220588      7.254746  KCAL/RADIAN  
     73         25  C    BOND            1.380250    -22.798741  KCAL/ANGSTROM
     74         25  C    ANGLE         172.212671    -19.372204  KCAL/RADIAN  
     75         25  C    DIHEDRAL      223.268201     -2.441753  KCAL/RADIAN  
     76         26  H    BOND            1.112060     -1.257842  KCAL/ANGSTROM
     77         26  H    ANGLE         111.809418      2.648264  KCAL/RADIAN  
     78         26  H    DIHEDRAL       12.058827      0.835538  KCAL/RADIAN  
     79         27  H    BOND            1.113565     -7.463727  KCAL/ANGSTROM
     80         27  H    ANGLE         109.033326      3.215152  KCAL/RADIAN  
     81         27  H    DIHEDRAL      253.250729     -6.389410  KCAL/RADIAN  
     82         28  H    BOND            1.111376     -4.031720  KCAL/ANGSTROM
     83         28  H    ANGLE         107.432520    -11.167805  KCAL/RADIAN  
     84         28  H    DIHEDRAL      301.266725      4.592651  KCAL/RADIAN  
     85         29  H    BOND            1.111692      1.622100  KCAL/ANGSTROM
     86         29  H    ANGLE         111.836424      0.053524  KCAL/RADIAN  
     87         29  H    DIHEDRAL      182.066705     -2.672610  KCAL/RADIAN  
     88         30  H    BOND            1.084079    -12.191892  KCAL/ANGSTROM
     89         30  H    ANGLE         119.246524      2.193358  KCAL/RADIAN  
     90         30  H    DIHEDRAL       87.437995      0.512173  KCAL/RADIAN  
     91         31  H    BOND            1.081878     -7.198326  KCAL/ANGSTROM
     92         31  H    ANGLE         121.167874      4.676700  KCAL/RADIAN  
     93         31  H    DIHEDRAL      179.925816      0.405811  KCAL/RADIAN  
     94         32  H    BOND            1.082581     -3.817993  KCAL/ANGSTROM
     95         32  H    ANGLE         121.659964      0.993831  KCAL/RADIAN  
     96         32  H    DIHEDRAL      358.406662      0.388505  KCAL/RADIAN  
     97         33  H    BOND            1.079654     -5.041099  KCAL/ANGSTROM
     98         33  H    ANGLE         122.965861      3.637654  KCAL/RADIAN  
     99         33  H    DIHEDRAL      179.751425     -0.044903  KCAL/RADIAN  
    100         34  H    BOND            1.083232     -6.195487  KCAL/ANGSTROM
    101         34  H    ANGLE         120.661056      1.601530  KCAL/RADIAN  
    102         34  H    DIHEDRAL      359.294620     -0.208934  KCAL/RADIAN  
    103         35  H    BOND            1.111005      0.682454  KCAL/ANGSTROM
    104         35  H    ANGLE         110.011016      3.428885  KCAL/RADIAN  
    105         35  H    DIHEDRAL      240.749702     -5.363705  KCAL/RADIAN  
    106         36  H    BOND            1.110287      0.370033  KCAL/ANGSTROM
    107         36  H    ANGLE         110.083203      3.454430  KCAL/RADIAN  
    108         36  H    DIHEDRAL      119.275810      5.384699  KCAL/RADIAN  
    109         37  H    BOND            1.081707     -7.038043  KCAL/ANGSTROM
    110         37  H    ANGLE         117.882992     -5.109035  KCAL/RADIAN  
    111         37  H    DIHEDRAL      178.982702     -0.143078  KCAL/RADIAN  
    112         38  H    BOND            1.109358      6.566355  KCAL/ANGSTROM
    113         38  H    ANGLE         108.635447     16.692809  KCAL/RADIAN  
    114         38  H    DIHEDRAL      116.612645     -0.246920  KCAL/RADIAN  
    115         39  H    BOND            1.111809      5.867557  KCAL/ANGSTROM
    116         39  H    ANGLE         109.522450     -2.187569  KCAL/RADIAN  
    117         39  H    DIHEDRAL      358.784957      2.887026  KCAL/RADIAN  
    118         40  H    BOND            1.106914      3.471788  KCAL/ANGSTROM
    119         40  H    ANGLE         111.777427      1.755504  KCAL/RADIAN  
    120         40  H    DIHEDRAL      235.151841     -2.810733  KCAL/RADIAN  
    121         41  H    BOND            1.109667      5.095297  KCAL/ANGSTROM
    122         41  H    ANGLE         110.539046     -1.452791  KCAL/RADIAN  
    123         41  H    DIHEDRAL      198.335375     -0.768824  KCAL/RADIAN  
    124         42  H    BOND            1.111863      5.662159  KCAL/ANGSTROM
    125         42  H    ANGLE         110.002027     -1.998960  KCAL/RADIAN  
    126         42  H    DIHEDRAL       76.405888      0.171436  KCAL/RADIAN  
    127         43  H    BOND            1.109418      7.330898  KCAL/ANGSTROM
    128         43  H    ANGLE         109.056384     15.951356  KCAL/RADIAN  
    129         43  H    DIHEDRAL      317.788626      0.450225  KCAL/RADIAN  




  ATOM               CHEMICAL                 BOND LENGTH      BOND ANGLE     TWIST ANGLE 
 NUMBER               SYMBOL                  (ANGSTROMS)      (DEGREES)       (DEGREES) 
   (I)                                           NA:I           NB:NA:I       NC:NB:NA:I       NA    NB    NC 
     1       O(HETATM    1  O1  HET A   1)    0.00000000  *    0.0000000  *    0.0000000  *
     2       O(HETATM    2  O2  HET A   1)    2.22967000  *    0.0000000  *    0.0000000  *     1     0     0
     3       O(HETATM    3  O3  HET A   1)    9.97988900  *   96.6612830  *    0.0000000  *     2     1     0
     4       O(HETATM    4  O4  HET A   1)    2.85019900  *  102.9554630  * -168.5699190  *     3     2     1
     5       N(HETATM    5  N   HET A   1)    4.13278900  *   16.9254260  *   13.3718190  *     3     2     1
     6       C(HETATM    6  C1  HET A   1)    1.47651700  *  119.1636870  *  174.6968400  *     5     3     2
     7       C(HETATM    7  C2  HET A   1)    1.51772400  *  109.4468440  *  135.6464540  *     6     5     3
     8       C(HETATM    8  C3  HET A   1)    1.37739000  *  121.1116490  *   -4.6841740  *     5     3     2
     9       C(HETATM    9  C4  HET A   1)    1.50748700  *  107.9021990  *   59.0501720  *     7     6     5
    10       C(HETATM   10  C5  HET A   1)    1.42901000  *  119.2230910  *  -40.2976040  *     9     7     6
    11       C(HETATM   11  C6  HET A   1)    7.37476400  *   90.6143400  *    1.6175620  *     2     1     3
    12       C(HETATM   12  C7  HET A   1)    1.40588700  *  119.4891570  *    4.2743980  *     8     5     3
    13       C(HETATM   13  C8  HET A   1)    1.40532700  *  121.0912250  *  -94.0039050  *    11     5     3
    14       C(HETATM   14  C9  HET A   1)    1.39840900  *  119.9392870  *   -1.6469040  *    12     8     5
    15       C(HETATM   15  C10 HET A   1)    1.41028100  *  120.3599080  *  141.0456100  *     9     7     6
    16       C(HETATM   16  C11 HET A   1)    1.41663300  *  119.2797510  * -176.5864330  *    10     9     7
    17       C(HETATM   17  C12 HET A   1)    1.33530500  *   70.7078710  *    0.7331880  *     1     2     3
    18       C(HETATM   18  C13 HET A   1)    1.33552600  *   70.7786130  *   -0.7625250  *     2     1     3
    19       C(HETATM   19  C14 HET A   1)    1.36400000  *   45.5962090  * -167.1685390  *     3     2     1
    20       C(HETATM   20  C15 HET A   1)    1.39765900  *  120.3317830  *  179.9157060  *    14    12     8
    21       C(HETATM   21  C16 HET A   1)    1.35913200  *   59.2978570  *    2.6760670  *     4     3     2
    22       C(HETATM   22  C17 HET A   1)    1.39188200  *   36.8024330  * -179.4264530  *     1     2     3
    23       C(HETATM   23  C18 HET A   1)    1.39203400  *  120.3595730  *  179.8280630  *    20    14    12
    24       C(HETATM   24  C19 HET A   1)    1.37906000  *  165.1117770  *  -94.7794120  *     3     2     1
    25       C(HETATM   25  C20 HET A   1)    1.38025000  *  172.2126710  * -136.7317990  *     4     3     2
    26       H(HETATM   26 1H1  HET A   1)    1.11206000  *  111.8094180  *   12.0588270  *     6     5     3
    27       H(HETATM   27 2H1  HET A   1)    1.11356500  *  109.0333260  * -106.7492710  *     6     5     3
    28       H(HETATM   28 1H2  HET A   1)    1.11137600  *  107.4325200  *  -58.7332750  *     7     6     5
    29       H(HETATM   29 2H2  HET A   1)    1.11169200  *  111.8364240  * -177.9332950  *     7     6     5
    30       H(HETATM   30  H6  HET A   1)    1.08407900  *  119.2465240  *   87.4379950  *    11     5     3
    31       H(HETATM   31  H7  HET A   1)    1.08187800  *  121.1678740  *  179.9258160  *    12     8     5
    32       H(HETATM   32  H10 HET A   1)    1.08258100  *  121.6599640  *   -1.5933380  *    15     9     7
    33       H(HETATM   33  H11 HET A   1)    1.07965400  *  122.9658610  *  179.7514250  *    16    10     9
    34       H(HETATM   34  H15 HET A   1)    1.08323200  *  120.6610560  *   -0.7053800  *    20    14    12
    35       H(HETATM   35 1H17 HET A   1)    1.11100500  *  110.0110160  * -119.2502980  *    22     1     2
    36       H(HETATM   36 2H17 HET A   1)    1.11028700  *  110.0832030  *  119.2758100  *    22     1     2
    37       H(HETATM   37  H18 HET A   1)    1.08170700  *  117.8829920  *  178.9827020  *    23    20    14
    38       H(HETATM   38 1H19 HET A   1)    1.10935800  *  108.6354470  *  116.6126450  *    24     3     2
    39       H(HETATM   39 2H19 HET A   1)    1.11180900  *  109.5224500  *   -1.2150430  *    24     3     2
    40       H(HETATM   40 3H19 HET A   1)    1.10691400  *  111.7774270  * -124.8481590  *    24     3     2
    41       H(HETATM   41 1H20 HET A   1)    1.10966700  *  110.5390460  * -161.6646250  *    25     4     3
    42       H(HETATM   42 2H20 HET A   1)    1.11186300  *  110.0020270  *   76.4058880  *    25     4     3
    43       H(HETATM   43 3H20 HET A   1)    1.10941800  *  109.0563840  *  -42.2113740  *    25     4     3

                             CARTESIAN COORDINATES

   1    O        0.000000000     0.000000000     0.000000000
   2    O        2.229670000     0.000000000     0.000000000
   3    O        3.387332995     9.912517382     0.000000000
   4    O        6.165634844    10.231384456    -0.550451598
   5    N        1.766051395     6.121216176     0.278255381
   6    C        0.367667941     5.967797384     0.726684686
   7    C       -0.340971208     4.963030662    -0.163124580
   8    C        2.511589356     5.004143277    -0.027562375
   9    C        0.403823452     3.655666701    -0.070402168
  10    C        1.832525770     3.667075742    -0.043032459
  11    C        2.308742590     7.371401475     0.208163112
  12    C        3.871509509     5.147768739    -0.353916725
  13    C        3.658575908     7.558385278    -0.135247790
  14    C        4.447572964     6.421194770    -0.399576006
  15    C       -0.300881997     2.434458125    -0.039867892
  16    C        2.535076842     2.436999623    -0.029475599
  17    C        0.441164389     1.260219558    -0.016127336
  18    C        1.789989286     1.260963485    -0.016782614
  19    C        4.220350715     8.854338910    -0.216415800
  20    C        5.799144879     6.573343636    -0.721375260
  21    C        5.601286328     8.995290476    -0.521777255
  22    C        1.114488176    -0.833775714     0.008346610
  23    C        6.372315602     7.840948574    -0.770484323
  24    C        3.571256200    11.232859103    -0.353095565
  25    C        7.509562796    10.516717062    -0.682863939
  26    H       -0.170753176     6.940719876     0.740896260
  27    H        0.361323801     5.565026479     1.764838027
  28    H       -0.286209851     5.344602887    -1.205506681
  29    H       -1.410147093     4.844205561     0.117237017
  30    H        1.691543923     8.230728871     0.444488118
  31    H        4.482653898     4.288868500    -0.597335955
  32    H       -1.382863130     2.402222658    -0.055971419
  33    H        3.612887146     2.376187916    -0.012753018
  34    H        6.418558291     5.708971654    -0.927723672
  35    H        1.113332017    -1.479048099    -0.896061662
  36    H        1.114282675    -1.461338356     0.924262715
  37    H        7.425464958     7.911113005    -1.007219237
  38    H        2.664670770    11.805465639    -0.068666690
  39    H        3.695367593    11.308863754    -1.455338237
  40    H        4.431526555    11.683905261     0.177706548
  41    H        7.891518474    10.148657891    -1.657544993
  42    H        8.080408551    10.055287048     0.152274849
  43    H        7.652746473    11.615891453    -0.636794515


           Empirical Formula: C20 H18 N O4  =    43 atoms



      MOLECULAR POINT GROUP   :   C1  


                  EIGENVALUES  
 -41.95211 -36.32612 -34.79209 -33.92015 -33.67117 -33.36441 -32.68835 -32.28975
 -31.56834 -30.48992 -29.84805 -28.87544 -28.25939 -27.80242 -27.28441 -26.81436
 -26.46097 -25.92600 -25.51515 -24.32917 -24.20298 -23.33651 -22.06318 -21.88642
 -21.62334 -20.81572 -20.57475 -20.15800 -20.10823 -19.96930 -19.52881 -19.46686
 -19.41844 -19.08411 -18.68777 -18.45311 -18.28498 -18.11306 -17.99864 -17.97291
 -17.67674 -17.56719 -17.28637 -17.05490 -16.78186 -16.49673 -16.45904 -16.20177
 -16.09510 -16.01147 -15.98828 -15.67613 -15.29509 -15.15743 -15.06458 -14.88826
 -14.56124 -14.36529 -13.72027 -13.22413 -12.71670 -11.73599 -11.30676  -4.92568
  -4.50575  -3.10833  -3.02543  -2.97307  -2.71563  -2.17683  -1.92279  -1.55982
  -1.42097  -1.00763  -0.75633  -0.65858  -0.62615  -0.39478  -0.06974   0.12012
   0.16862   0.38234   0.56733   0.69404   0.74731   0.75708   0.94084   1.03014
   1.06659   1.25231   1.35515   1.39669   1.47516   1.53294   1.61643   1.71560
   1.83165   1.84061   1.86568   1.91332   1.98383   2.10417   2.22370   2.32222
   2.42794   2.49401   2.58689   2.59071   2.61967   2.70672   2.74752   2.76480
   2.85967   2.86849   2.99905   3.21422   3.29206   3.41050


              NET ATOMIC CHARGES AND DIPOLE CONTRIBUTIONS

  ATOM NO.                 TYPE                        CHARGE      No. of ELECS.   s-Pop       p-Pop       
    1          O(HETATM    1  O1  HET A   1)          -0.317093        6.3171     1.85026     4.46683
    2          O(HETATM    2  O2  HET A   1)          -0.325209        6.3252     1.84968     4.47553
    3          O(HETATM    3  O3  HET A   1)          -0.367879        6.3679     1.82701     4.54087
    4          O(HETATM    4  O4  HET A   1)          -0.340099        6.3401     1.83217     4.50793
    5          N(HETATM    5  N   HET A   1)          -0.112313        5.1123     1.51311     3.59921
    6          C(HETATM    6  C1  HET A   1)          -0.120970        4.1210     1.07597     3.04500
    7          C(HETATM    7  C2  HET A   1)          -0.291015        4.2910     1.06212     3.22889
    8          C(HETATM    8  C3  HET A   1)           0.131593        3.8684     1.07289     2.79552
    9          C(HETATM    9  C4  HET A   1)           0.016617        3.9834     1.07529     2.90810
   10          C(HETATM   10  C5  HET A   1)          -0.103737        4.1037     1.05954     3.04420
   11          C(HETATM   11  C6  HET A   1)           0.085096        3.9149     1.10284     2.81206
   12          C(HETATM   12  C7  HET A   1)          -0.140708        4.1407     1.09151     3.04920
   13          C(HETATM   13  C8  HET A   1)          -0.127684        4.1277     1.04838     3.07930
   14          C(HETATM   14  C9  HET A   1)           0.030603        3.9694     1.05097     2.91842
   15          C(HETATM   15  C10 HET A   1)          -0.201011        4.2010     1.07604     3.12497
   16          C(HETATM   16  C11 HET A   1)          -0.137198        4.1372     1.07613     3.06107
   17          C(HETATM   17  C12 HET A   1)           0.179080        3.8209     1.06803     2.75289
   18          C(HETATM   18  C13 HET A   1)           0.120356        3.8796     1.06086     2.81878
   19          C(HETATM   19  C14 HET A   1)           0.219049        3.7810     1.07870     2.70225
   20          C(HETATM   20  C15 HET A   1)          -0.163060        4.1631     1.08048     3.08258
   21          C(HETATM   21  C16 HET A   1)           0.161650        3.8384     1.08533     2.75302
   22          C(HETATM   22  C17 HET A   1)           0.163712        3.8363     1.12394     2.71235
   23          C(HETATM   23  C18 HET A   1)          -0.149872        4.1499     1.09345     3.05642
   24          C(HETATM   24  C19 HET A   1)          -0.152959        4.1530     1.08610     3.06686
   25          C(HETATM   25  C20 HET A   1)          -0.175645        4.1756     1.08654     3.08911
   26          H(HETATM   26 1H1  HET A   1)           0.176149        0.8239     0.82385
   27          H(HETATM   27 2H1  HET A   1)           0.189851        0.8101     0.81015
   28          H(HETATM   28 1H2  HET A   1)           0.181050        0.8190     0.81895
   29          H(HETATM   29 2H2  HET A   1)           0.191273        0.8087     0.80873
   30          H(HETATM   30  H6  HET A   1)           0.210071        0.7899     0.78993
   31          H(HETATM   31  H7  HET A   1)           0.199096        0.8009     0.80090
   32          H(HETATM   32  H10 HET A   1)           0.191609        0.8084     0.80839
   33          H(HETATM   33  H11 HET A   1)           0.181946        0.8181     0.81805
   34          H(HETATM   34  H15 HET A   1)           0.184383        0.8156     0.81562
   35          H(HETATM   35 1H17 HET A   1)           0.156271        0.8437     0.84373
   36          H(HETATM   36 2H17 HET A   1)           0.156167        0.8438     0.84383
   37          H(HETATM   37  H18 HET A   1)           0.184675        0.8153     0.81532
   38          H(HETATM   38 1H19 HET A   1)           0.166113        0.8339     0.83389
   39          H(HETATM   39 2H19 HET A   1)           0.142954        0.8570     0.85705
   40          H(HETATM   40 3H19 HET A   1)           0.152691        0.8473     0.84731
   41          H(HETATM   41 1H20 HET A   1)           0.138875        0.8611     0.86113
   42          H(HETATM   42 2H20 HET A   1)           0.140348        0.8597     0.85965
   43          H(HETATM   43 3H20 HET A   1)           0.175172        0.8248     0.82483
 DIPOLE           X         Y         Z       TOTAL
 POINT-CHG.     0.580     4.361    -0.031     4.399
 HYBRID        -0.205     0.092     0.153     0.272
 SUM            0.375     4.453     0.122     4.470


          ATOMIC ORBITAL ELECTRON POPULATIONS

                   Atom                  s        px        py        pz   
   O(HETATM    1  O1  HET A   1)   1.85026   1.37769   1.21424   1.87490
   O(HETATM    2  O2  HET A   1)   1.84968   1.37487   1.21082   1.88983
   O(HETATM    3  O3  HET A   1)   1.82701   1.51286   1.25001   1.77801
   O(HETATM    4  O4  HET A   1)   1.83217   1.32915   1.31075   1.86803
   N(HETATM    5  N   HET A   1)   1.51311   1.15571   1.10225   1.34125
   C(HETATM    6  C1  HET A   1)   1.07597   0.80302   1.13314   1.10884
   C(HETATM    7  C2  HET A   1)   1.06212   1.11334   0.99246   1.12310
   C(HETATM    8  C3  HET A   1)   1.07289   0.93425   0.87662   0.98465
   C(HETATM    9  C4  HET A   1)   1.07529   0.95380   0.96694   0.98735
   C(HETATM   10  C5  HET A   1)   1.05954   0.97659   0.93556   1.13205
   C(HETATM   11  C6  HET A   1)   1.10284   1.00602   0.89656   0.90949
   C(HETATM   12  C7  HET A   1)   1.09151   0.99063   1.06330   0.99527
   C(HETATM   13  C8  HET A   1)   1.04838   0.97926   0.99463   1.10542
   C(HETATM   14  C9  HET A   1)   1.05097   0.99350   0.95739   0.96754
   C(HETATM   15  C10 HET A   1)   1.07604   1.10256   0.94934   1.07306
   C(HETATM   16  C11 HET A   1)   1.07613   1.09268   0.94419   1.02420
   C(HETATM   17  C12 HET A   1)   1.06803   0.95395   0.84258   0.95636
   C(HETATM   18  C13 HET A   1)   1.06086   0.95560   0.84459   1.01859
   C(HETATM   19  C14 HET A   1)   1.07870   0.89176   0.84463   0.96586
   C(HETATM   20  C15 HET A   1)   1.08048   0.99655   1.06091   1.02512
   C(HETATM   21  C16 HET A   1)   1.08533   0.92993   0.84215   0.98094
   C(HETATM   22  C17 HET A   1)   1.12394   0.68071   0.88577   1.14588
   C(HETATM   23  C18 HET A   1)   1.09345   1.09581   0.97755   0.98305
   C(HETATM   24  C19 HET A   1)   1.08610   1.17088   0.76086   1.13512
   C(HETATM   25  C20 HET A   1)   1.08654   0.79676   1.14504   1.14731
   H(HETATM   26 1H1  HET A   1)   0.82385
   H(HETATM   27 2H1  HET A   1)   0.81015
   H(HETATM   28 1H2  HET A   1)   0.81895
   H(HETATM   29 2H2  HET A   1)   0.80873
   H(HETATM   30  H6  HET A   1)   0.78993
   H(HETATM   31  H7  HET A   1)   0.80090
   H(HETATM   32  H10 HET A   1)   0.80839
   H(HETATM   33  H11 HET A   1)   0.81805
   H(HETATM   34  H15 HET A   1)   0.81562
   H(HETATM   35 1H17 HET A   1)   0.84373
   H(HETATM   36 2H17 HET A   1)   0.84383
   H(HETATM   37  H18 HET A   1)   0.81532
   H(HETATM   38 1H19 HET A   1)   0.83389
   H(HETATM   39 2H19 HET A   1)   0.85705
   H(HETATM   40 3H19 HET A   1)   0.84731
   H(HETATM   41 1H20 HET A   1)   0.86113
   H(HETATM   42 2H20 HET A   1)   0.85965
   H(HETATM   43 3H20 HET A   1)   0.82483

           DATA FOR GRAPH WRITTEN TO DISK

 **********************
 *                    *
 * JOB ENDED NORMALLY *
 *                    *
 **********************



 TOTAL JOB TIME:             0.40 SECONDS

 == MOPAC DONE ==
