 *******************************************************************************
 **                                                                           **
 **                              MOPAC v22.0.6                                **
 **                                                                           **
 *******************************************************************************
 **          Digital Object Identifier (DOI): 10.5281/zenodo.6511958          **
 **    Visit the DOI location for information on how to cite this program.    **
 *******************************************************************************

                              PM7 CALCULATION RESULTS

 *******************************************************************************
 *  CALCULATION DONE:                                Sun Oct 12 20:21:18 2025  *
 *  PM7        - The PM7 Hamiltonian to be used
 *  PDBOUT     - PRINT GEOMETRY IN PDB FORMAT
 *  RESIDUES   - DETERMINE THE SEQUENCE OF RESIDUES
 *
 *
 *
 *                 CHARGE ON SYSTEM = +1
 *
 *
 *
 *  EF         - USE EF ROUTINE FOR MINIMUM SEARCH
 *  T=         - A TIME OF 172800.0 SECONDS REQUESTED
 *  DUMP=N     - RESTART FILE WRITTEN EVERY 7200.0 SECONDS REQUESTED
 *  NOXYZ      - CARTESIAN COORDINATES NOT TO BE PRINTED
 *  PRNT       - EXTRA PRINTING IN EF ROUTINE
 *  GRAPH      - GENERATE FILE FOR GRAPHICS
 *  COMPFG     - PRINT HEAT OF FORMATION CALC'D IN COMPFG
 *******************************************************************************
PM7 CHARGE=+1 EF NOXYZ PRNT=2 PDBOUT COMPFG GRAPHF
 3,16,17-trimethoxy-12-methyl-6,8-dioxa-12-azoniapentacyclo[11.8.0.02,10.05,9.014,19]henicosa-1(13),2,4,9,11,14,16,18,20-nonaene

  ATOM    CHEMICAL      BOND LENGTH      BOND ANGLE     TWIST ANGLE 
 NUMBER    SYMBOL       (ANGSTROMS)      (DEGREES)       (DEGREES) 
   (I)                     NA:I           NB:NA:I       NC:NB:NA:I       NA    NB    NC 
     1       O          0.00000000  *    0.0000000  *    0.0000000  *     0     0     0
     2       O          2.22202200  *    0.0000000  *    0.0000000  *     1     0     0
     3       O          4.81836700  *   94.0182430  *    0.0000000  *     2     1     0
     4       O          9.13878800  *  102.6125630  *   -0.5766680  *     3     2     1
     5       O          2.84290200  *   73.7892900  * -172.4944290  *     4     3     2
     6       N          4.27143400  *  125.4949700  *    0.2729490  *     1     2     3
     7       C          1.40150200  *  121.4714570  *    2.1188400  *     6     1     2
     8       C          1.46155700  *  117.5771220  *   -1.0305330  *     7     6     1
     9       C          1.44884900  *  120.6765540  *   -0.9111930  *     8     7     6
    10       C          1.41728500  *  116.7622460  *    1.9747410  *     9     8     7
    11       C          1.47663100  *  124.6133410  *  178.0569640  *     7     6     1
    12       C          4.56645500  *   31.3076930  *   -0.0773930  *     2     1     3
    13       C          1.33890600  *   70.8611130  *    0.2595980  *     1     2     3
    14       C          1.42378700  *  118.8780810  * -177.1825180  *    11     7     6
    15       C          1.35617600  *   28.9056190  *   -1.8269320  *     3     2     1
    16       C          1.41138800  *  118.3412720  *  178.2484630  *     8     7     6
    17       C          1.33569900  *   70.4508070  *   -0.2275400  *     2     1     3
    18       C          1.36907600  *  122.7309660  *   -0.4940450  *    16     8     7
    19       C          1.37575800  *  128.2895850  *  179.7183800  *    17     2     1
    20       C          1.43027100  *  126.8812230  *    2.6453650  *    11     7     6
    21       C          1.47288900  *  112.1955960  * -178.9963150  *     6     1     2
    22       C          1.40298800  *  122.2552920  *  177.9469570  *    14    11     7
    23       C          1.36167400  *   14.3763600  * -166.4002670  *     4     3     2
    24       C          1.36281200  *   56.7630770  *    0.6491540  *     5     4     3
    25       C          1.38975500  *   36.9558730  * -179.8281180  *     2     1     3
    26       C          1.38081600  *   98.7244100  *  176.2628090  *     3     2     1
    27       C          1.38027300  *  113.0045890  *   12.3928500  *     4     3     2
    28       C          1.37910900  *   71.6285410  *  175.1586010  *     5     4     3
    29       H          1.08615900  *  120.5092460  *  -39.0728530  *    12     6     1
    30       H          1.06309300  *  125.6276740  * -179.0456240  *    16     8     7
    31       H          1.08598300  *  118.1389610  * -179.0274850  *    18    16     8
    32       H          1.08107600  *  118.3959880  *   -0.4382940  *    19    17     2
    33       H          1.04684000  *  123.9676600  *    1.7489910  *    20    11     7
    34       H          1.11056000  *  109.8939250  * -116.6492050  *    21     6     1
    35       H          1.11228100  *  114.1758670  *   -0.1711070  *    21     6     1
    36       H          1.11016000  *  109.8428770  *  115.8692670  *    21     6     1
    37       H          1.08533100  *  120.2331650  * -178.8945910  *    22    14    11
    38       H          1.11105000  *  110.1223670  *  119.1548170  *    25     2     1
    39       H          1.11030500  *  110.1416530  * -119.1943280  *    25     2     1
    40       H          1.10914700  *  108.9569110  *  179.6659070  *    26     3     2
    41       H          1.11033300  *  110.4094720  *   60.5801460  *    26     3     2
    42       H          1.11113300  *  110.1375020  *  -61.5690040  *    26     3     2
    43       H          1.11007300  *  110.6318740  *  -62.5317150  *    27     4     3
    44       H          1.10921400  *  108.9660320  *  178.2726560  *    27     4     3
    45       H          1.11159800  *  109.9839610  *   59.6595000  *    27     4     3
    46       H          1.10905600  *  108.8554310  *  176.3046400  *    28     5     4
    47       H          1.10970200  *  110.6956450  *   57.6175340  *    28     5     4
    48       H          1.11146600  *  110.0826910  *  -65.3304710  *    28     5     4


 General Reference for PM7:
 "Optimization of Parameters for Semiempirical Methods VI: More Modifications to the 
 NDDO Approximations and Re-optimization of Parameters", J. J. P. Stewart, J. Mol. Mod., 1:32, 19 (2013)
 https://link.springer.com/article/10.1007/s00894-012-1667-x

           Empirical Formula: C22 H20 N O5  =    48 atoms



      MOLECULAR POINT GROUP   :   C1  


      RHF CALCULATION, NO. OF DOUBLY OCCUPIED LEVELS = 71


          Geometry optimization using EF

  HEAT OF FORMATION        87.520117454856518    
 PARAMETERS        0.000   0.000   0.000   2.222   0.000   0.000   4.818   1.641
   0.000   9.139   1.791   6.273   2.843   1.288   3.273   4.271   2.190   0.005

   1.402   2.120   0.037   1.462   2.052   6.265   1.449   2.106   6.267   1.417

   2.038   0.034   1.477   2.175   3.108   4.566   0.546   6.282   1.339   1.237

   0.005   1.424   2.075   3.191   1.356   0.504   6.251   1.411   2.065   3.111

   1.336   1.230   6.279   1.369   2.142   6.275   1.376   2.239   3.137   1.430

   2.214   0.046   1.473   1.958   3.159   1.403   2.134   3.106   1.362   0.251

   3.379   1.363   0.991   0.011   1.390   0.645   3.145   1.381   1.723   3.076

   1.380   1.972   0.216   1.379   1.250   3.057   1.086   2.103   5.601   1.063

   2.193   3.158   1.086   2.062   3.159   1.081   2.066   6.276   1.047   2.164

   0.031   1.111   1.918   4.247   1.112   1.993   6.280   1.110   1.917   2.022

   1.085   2.098   3.161   1.111   1.922   2.080   1.110   1.922   4.203   1.109

   1.902   3.136   1.110   1.927   1.057   1.111   1.922   5.209   1.110   1.931

   5.192   1.109   1.902   3.111   1.112   1.920   1.041   1.109   1.900   3.077

   1.110   1.932   1.006   1.111   1.921   5.143
 GRADIENT          0.000   0.000  -0.000 -97.514   0.000   0.000  68.256 114.776
   0.000  42.362 131.036  -6.756 -11.938  -0.704   0.935  26.560 160.904  -8.848

 -33.419-124.856  -0.637-101.852  33.014   8.848 -11.747-136.049   1.284  16.756

 -40.449  -1.752 -41.020 193.145  -4.500 -73.531  73.084  -2.684 -13.500-109.736

  -0.468  26.448 -97.401  -3.154 -13.324  46.212  -1.432 -14.997-155.748   0.087

 -41.865-114.873   1.275  24.648 -48.594   0.063 -39.521 -23.664  -0.562   1.640

  -0.577  -0.664   6.001 -19.825   0.357 -30.223  11.143   0.570   0.765  98.712

  -2.023  35.911  21.050  -3.712 -30.912 -55.910   0.161 -21.861  26.842  -0.077

 -20.474  25.027   0.984 -21.335  30.543   1.660 -13.670   8.128  -0.013 -23.064

  22.426   0.938  -9.515  -3.036   0.118  -6.411  -6.025  -0.007 -22.010  11.215

  -0.378   0.590  -2.081   7.433   1.221   6.301   0.352   0.418  -2.007  -7.700

  -7.096   0.657   0.149   0.590   3.338   5.540   0.290   3.371  -5.585   7.405

  16.262   0.142   5.031  -1.111  -0.167   5.216  -1.430  -0.077   6.005  -1.189

   0.698   7.012  15.704  -0.273   6.002  -1.904  -0.233   6.767  16.468   0.099

   5.426  -0.549   2.048   6.221  -1.851  -2.139

          DIAGONAL MATRIX USED AS START HESSIAN

*REMARK   3 HET = Not identified; C 22 H 20 N O 5    =    48 atoms res:    1
 PM7 CHARGE=+1 EF NOXYZ PRNT=2 PDBOUT COMPFG GRAPHF
 3,16,17-trimethoxy-12-methyl-6,8-dioxa-12-azoniapentacyclo[11.8.0.02,10.05,9.014,19]henicosa-1(13),2,4,9,11,14,16,18,20-nonaene

  O(HETATM    1  O1  HET A   1)   0.00000000 +1    0.0000000 +1    0.0000000 +1
  O(HETATM    2  O2  HET A   1)   2.22202200 +1    0.0000000 +1    0.0000000 +1     1     0     0
  O(HETATM    3  O3  HET A   1)   4.81836700 +1   94.0182430 +1    0.0000000 +1     2     1     0
  O(HETATM    4  O4  HET A   1)   9.13878800 +1  102.6125630 +1   -0.5766680 +1     3     2     1
  O(HETATM    5  O5  HET A   1)   2.84290200 +1   73.7892900 +1 -172.4944290 +1     4     3     2
  N(HETATM    6  N   HET A   1)   4.27143400 +1  125.4949700 +1    0.2729490 +1     1     2     3
  C(HETATM    7  C1  HET A   1)   1.40150200 +1  121.4714570 +1    2.1188400 +1     6     1     2
  C(HETATM    8  C2  HET A   1)   1.46155700 +1  117.5771220 +1   -1.0305330 +1     7     6     1
  C(HETATM    9  C3  HET A   1)   1.44884900 +1  120.6765540 +1   -0.9111930 +1     8     7     6
  C(HETATM   10  C4  HET A   1)   1.41728500 +1  116.7622460 +1    1.9747410 +1     9     8     7
  C(HETATM   11  C5  HET A   1)   1.47663100 +1  124.6133410 +1  178.0569640 +1     7     6     1
  C(HETATM   12  C6  HET A   1)   4.56645500 +1   31.3076930 +1   -0.0773930 +1     2     1     3
  C(HETATM   13  C7  HET A   1)   1.33890600 +1   70.8611130 +1    0.2595980 +1     1     2     3
  C(HETATM   14  C8  HET A   1)   1.42378700 +1  118.8780810 +1 -177.1825180 +1    11     7     6
  C(HETATM   15  C9  HET A   1)   1.35617600 +1   28.9056190 +1   -1.8269320 +1     3     2     1
  C(HETATM   16  C10 HET A   1)   1.41138800 +1  118.3412720 +1  178.2484630 +1     8     7     6
  C(HETATM   17  C11 HET A   1)   1.33569900 +1   70.4508070 +1   -0.2275400 +1     2     1     3
  C(HETATM   18  C12 HET A   1)   1.36907600 +1  122.7309660 +1   -0.4940450 +1    16     8     7
  C(HETATM   19  C13 HET A   1)   1.37575800 +1  128.2895850 +1  179.7183800 +1    17     2     1
  C(HETATM   20  C14 HET A   1)   1.43027100 +1  126.8812230 +1    2.6453650 +1    11     7     6
  C(HETATM   21  C15 HET A   1)   1.47288900 +1  112.1955960 +1 -178.9963150 +1     6     1     2
  C(HETATM   22  C16 HET A   1)   1.40298800 +1  122.2552920 +1  177.9469570 +1    14    11     7
  C(HETATM   23  C17 HET A   1)   1.36167400 +1   14.3763600 +1 -166.4002670 +1     4     3     2
  C(HETATM   24  C18 HET A   1)   1.36281200 +1   56.7630770 +1    0.6491540 +1     5     4     3
  C(HETATM   25  C19 HET A   1)   1.38975500 +1   36.9558730 +1 -179.8281180 +1     2     1     3
  C(HETATM   26  C20 HET A   1)   1.38081600 +1   98.7244100 +1  176.2628090 +1     3     2     1
  C(HETATM   27  C21 HET A   1)   1.38027300 +1  113.0045890 +1   12.3928500 +1     4     3     2
  C(HETATM   28  C22 HET A   1)   1.37910900 +1   71.6285410 +1  175.1586010 +1     5     4     3
  H(HETATM   29  H6  HET A   1)   1.08615900 +1  120.5092460 +1  -39.0728530 +1    12     6     1
  H(HETATM   30  H10 HET A   1)   1.06309300 +1  125.6276740 +1 -179.0456240 +1    16     8     7
  H(HETATM   31  H12 HET A   1)   1.08598300 +1  118.1389610 +1 -179.0274850 +1    18    16     8
  H(HETATM   32  H13 HET A   1)   1.08107600 +1  118.3959880 +1   -0.4382940 +1    19    17     2
  H(HETATM   33  H14 HET A   1)   1.04684000 +1  123.9676600 +1    1.7489910 +1    20    11     7
  H(HETATM   34 1H15 HET A   1)   1.11056000 +1  109.8939250 +1 -116.6492050 +1    21     6     1
  H(HETATM   35 2H15 HET A   1)   1.11228100 +1  114.1758670 +1   -0.1711070 +1    21     6     1
  H(HETATM   36 3H15 HET A   1)   1.11016000 +1  109.8428770 +1  115.8692670 +1    21     6     1
  H(HETATM   37  H16 HET A   1)   1.08533100 +1  120.2331650 +1 -178.8945910 +1    22    14    11
  H(HETATM   38 1H19 HET A   1)   1.11105000 +1  110.1223670 +1  119.1548170 +1    25     2     1
  H(HETATM   39 2H19 HET A   1)   1.11030500 +1  110.1416530 +1 -119.1943280 +1    25     2     1
  H(HETATM   40 1H20 HET A   1)   1.10914700 +1  108.9569110 +1  179.6659070 +1    26     3     2
  H(HETATM   41 2H20 HET A   1)   1.11033300 +1  110.4094720 +1   60.5801460 +1    26     3     2
  H(HETATM   42 3H20 HET A   1)   1.11113300 +1  110.1375020 +1  -61.5690040 +1    26     3     2
  H(HETATM   43 1H21 HET A   1)   1.11007300 +1  110.6318740 +1  -62.5317150 +1    27     4     3
  H(HETATM   44 2H21 HET A   1)   1.10921400 +1  108.9660320 +1  178.2726560 +1    27     4     3
  H(HETATM   45 3H21 HET A   1)   1.11159800 +1  109.9839610 +1   59.6595000 +1    27     4     3
  H(HETATM   46 1H22 HET A   1)   1.10905600 +1  108.8554310 +1  176.3046400 +1    28     5     4
  H(HETATM   47 2H22 HET A   1)   1.10970200 +1  110.6956450 +1   57.6175340 +1    28     5     4
  H(HETATM   48 3H22 HET A   1)   1.11146600 +1  110.0826910 +1  -65.3304710 +1    28     5     4

 XPARAM 
  1  1    0.0000  1  2    0.0000  1  3    0.0000  2  1    2.2220  2  2    0.0000
  2  3    0.0000  3  1    4.8184  3  2    1.6409  3  3    0.0000  4  1    9.1388
  4  2    1.7909  4  3    6.2731  5  1    2.8429  5  2    1.2879  5  3    3.2726
  6  1    4.2714  6  2    2.1903  6  3    0.0048  7  1    1.4015  7  2    2.1201
  7  3    0.0370  8  1    1.4616  8  2    2.0521  8  3    6.2652  9  1    1.4488
  9  2    2.1062  9  3    6.2673 10  1    1.4173 10  2    2.0379 10  3    0.0345
 11  1    1.4766 11  2    2.1749 11  3    3.1077 12  1    4.5665 12  2    0.5464
 12  3    6.2818 13  1    1.3389 13  2    1.2368 13  3    0.0045 14  1    1.4238
 14  2    2.0748 14  3    3.1908 15  1    1.3562 15  2    0.5045 15  3    6.2513
 16  1    1.4114 16  2    2.0654 16  3    3.1110 17  1    1.3357 17  2    1.2296
 17  3    6.2792 18  1    1.3691 18  2    2.1421 18  3    6.2746 19  1    1.3758
 19  2    2.2391 19  3    3.1367 20  1    1.4303 20  2    2.2145 20  3    0.0462
 21  1    1.4729 21  2    1.9582 21  3    3.1591 22  1    1.4030 22  2    2.1338
 22  3    3.1058 23  1    1.3617 23  2    0.2509 23  3    3.3790 24  1    1.3628
 24  2    0.9907 24  3    0.0113 25  1    1.3898 25  2    0.6450 25  3    3.1446
 26  1    1.3808 26  2    1.7231 26  3    3.0764 27  1    1.3803 27  2    1.9723
 27  3    0.2163 28  1    1.3791 28  2    1.2502 28  3    3.0571 29  1    1.0862
 29  2    2.1033 29  3    5.6012 30  1    1.0631 30  2    2.1926 30  3    3.1582
 31  1    1.0860 31  2    2.0619 31  3    3.1586 32  1    1.0811 32  2    2.0664
 32  3    6.2755 33  1    1.0468 33  2    2.1636 33  3    0.0305 34  1    1.1106
 34  2    1.9180 34  3    4.2473 35  1    1.1123 35  2    1.9927 35  3    6.2802
 36  1    1.1102 36  2    1.9171 36  3    2.0223 37  1    1.0853 37  2    2.0985
 37  3    3.1609 38  1    1.1111 38  2    1.9220 38  3    2.0796 39  1    1.1103
 39  2    1.9223 39  3    4.2029 40  1    1.1091 40  2    1.9017 40  3    3.1358
 41  1    1.1103 41  2    1.9270 41  3    1.0573 42  1    1.1111 42  2    1.9223
 42  3    5.2086 43  1    1.1101 43  2    1.9309 43  3    5.1918 44  1    1.1092
 44  2    1.9018 44  3    3.1114 45  1    1.1116 45  2    1.9196 45  3    1.0413
 46  1    1.1091 46  2    1.8999 46  3    3.0771 47  1    1.1097 47  2    1.9320
 47  3    1.0056 48  1    1.1115 48  2    1.9213 48  3    5.1430
 grad
       0.00001    0.00002   -0.00000  -97.51387    0.00000    0.00000   68.25639  114.77592
       0.00000   42.36247  131.03582   -6.75637  -11.93807   -0.70379    0.93456   26.56034
     160.90351   -8.84844  -33.41898 -124.85598   -0.63658 -101.85232   33.01388    8.84828
     -11.74744 -136.04852    1.28414   16.75623  -40.44912   -1.75186  -41.02012  193.14456
      -4.50008  -73.53120   73.08371   -2.68361  -13.50043 -109.73570   -0.46838   26.44818
     -97.40148   -3.15433  -13.32394   46.21208   -1.43235  -14.99670 -155.74838    0.08651
     -41.86488 -114.87277    1.27482   24.64807  -48.59435    0.06290  -39.52060  -23.66420
      -0.56189    1.63955   -0.57711   -0.66385    6.00076  -19.82494    0.35741  -30.22335
      11.14302    0.56971    0.76536   98.71184   -2.02333   35.91108   21.05020   -3.71210
     -30.91188  -55.91028    0.16108  -21.86089   26.84244   -0.07720  -20.47428   25.02711
       0.98355  -21.33472   30.54276    1.66028  -13.66956    8.12805   -0.01306  -23.06428
      22.42645    0.93782   -9.51470   -3.03602    0.11831   -6.41080   -6.02531   -0.00679
     -22.00991   11.21539   -0.37781    0.59036   -2.08062    7.43264    1.22104    6.30118
       0.35173    0.41763   -2.00742   -7.70013   -7.09634    0.65664    0.14854    0.58986
       3.33762    5.54014    0.28994    3.37070   -5.58507    7.40545   16.26201    0.14196
       5.03084   -1.11072   -0.16741    5.21619   -1.42956   -0.07749    6.00476   -1.18937
       0.69805    7.01197   15.70410   -0.27297    6.00182   -1.90360   -0.23272    6.76710
      16.46806    0.09921    5.42591   -0.54917    2.04775    6.22061   -1.85082   -2.13857
 CYCLE:     1 TIME:   0.070 TIME LEFT:  2.00D  GRAD.:   514.991 HEAT:  87.52012

          HESSIAN HAS  0 NEGATIVE EIGENVALUE(S)
  MIN SEARCH, CORRECT HESSIAN, TRYING PURE NR STEP
 LAMBDA THAT MINIMIZES ALONG ALL MODES =        0.000000000
 PURE NR-STEP HAS LENGTH   0.85724
 LAMBDA THAT MINIMIZES ALONG ALL MODES =     -263.095729795
 P-RFO-STEP   HAS LENGTH   0.56854
 LAMBDA THAT MINIMIZES ALONG ALL MODES =    -1759.818728203
 QA/TRIM-STEP HAS LENGTH   0.20000

  HEAT OF FORMATION        386.19227089243941    
 PARAMETERS        0.008  -0.013  -0.005   2.266   0.008  -0.003   4.789   1.623
   0.002   9.115   1.795   6.282   2.844   1.296   3.272   4.254   2.145   0.012

   1.406   2.175   0.038   1.489   2.029   6.261   1.443   2.157   6.267   1.405

   2.056   0.036   1.483   2.085   3.110   4.594   0.531   6.283   1.343   1.285

   0.003   1.406   2.113   3.193   1.362   0.474   6.249   1.409   2.130   3.111

   1.347   1.270   6.277   1.350   2.154   6.275   1.381   2.245   3.137   1.422

   2.215   0.047   1.463   1.963   3.159   1.405   2.124   3.106   1.365   0.202

   3.377   1.350   0.981   0.011   1.402   0.665   3.142   1.383   1.706   3.076

   1.381   1.961   0.216   1.384   1.232   3.055   1.088   2.096   5.601   1.069

   2.181   3.158   1.087   2.061   3.159   1.081   2.066   6.276   1.053   2.158

   0.031   1.108   1.916   4.243   1.109   1.987   6.280   1.108   1.916   2.026

   1.085   2.096   3.161   1.109   1.919   2.077   1.108   1.918   4.206   1.104

   1.892   3.136   1.107   1.926   1.057   1.107   1.920   5.209   1.106   1.928

   5.191   1.105   1.893   3.112   1.108   1.919   1.041   1.105   1.891   3.077

   1.106   1.931   1.005   1.107   1.919   5.144
 GRADIENT          0.000   0.000  -0.000 239.312   0.000   0.000  -7.4103308.837
   0.000-476.6812122.639-383.665 302.870-616.269  40.598  99.1852916.893********

-140.7142573.472  59.674 577.741  -8.551  62.196 236.824 523.716  77.207  -9.738

 151.973  46.150 398.223******** 140.887-141.772-547.885********  36.347 292.687

  42.116-224.6621574.357  -2.906 185.958 345.362   0.530  47.356 393.974  -0.014

  31.050  93.034  -6.011 -68.290 190.200  -2.531  52.833 -27.830   0.145 -43.335

 -38.857 -12.526 -11.100  22.099  -3.504 308.176-670.506  41.661   6.759  17.275

  -2.245 174.231 656.272  13.170  -3.204  29.833   0.509 -25.643  13.381  -0.270

 -25.520  19.843   1.119 -19.886  22.950   0.102 -65.424  29.170 128.579 -20.799

  15.044   0.578   8.671 -31.338   0.336  -1.617 -15.003  -0.286 -14.153  -4.744

   0.580  -2.088  -2.808   2.050  -3.869   6.044  -0.109  -2.544  -4.216  -1.846

 -35.509  27.770  -4.328   2.296   1.643   9.051   1.636   1.671  -9.247   4.481

  12.570   0.026   3.410  -1.981  -0.931   3.149  -2.242   0.694   3.685  -1.811

   0.573   4.228  12.810  -0.260   4.037  -2.418  -0.170   4.288  13.787   0.111

   3.605  -0.656   1.639   4.063  -1.793  -1.778
       HoF         ACTUAL,  PREDICTED ENERGY CHANGE, RATIO
   386.1922709   298.6721534         -82.1442241   -3.6359483
 UNACCEPTABLE RATIO, REJECTING STEP, REDUCING DMAX TO 0.1000
  MIN SEARCH, CORRECT HESSIAN, TRYING PURE NR STEP
 LAMBDA THAT MINIMIZES ALONG ALL MODES =        0.000000000
 PURE NR-STEP HAS LENGTH   0.85724
 LAMBDA THAT MINIMIZES ALONG ALL MODES =     -263.095729795
 P-RFO-STEP   HAS LENGTH   0.56854
 LAMBDA THAT MINIMIZES ALONG ALL MODES =    -4103.466518114
 QA/TRIM-STEP HAS LENGTH   0.10000

  HEAT OF FORMATION        264.56105475213553    
 PARAMETERS        0.004  -0.006  -0.002   2.246   0.004  -0.002   4.803   1.632
   0.001   9.126   1.792   6.277   2.843   1.292   3.272   4.262   2.168   0.008

   1.404   2.147   0.037   1.476   2.041   6.263   1.446   2.131   6.267   1.411

   2.047   0.035   1.480   2.131   3.109   4.581   0.538   6.282   1.341   1.260

   0.004   1.414   2.094   3.192   1.359   0.490   6.250   1.410   2.097   3.111

   1.342   1.250   6.278   1.359   2.148   6.275   1.379   2.242   3.137   1.426

   2.215   0.047   1.468   1.961   3.159   1.404   2.129   3.106   1.364   0.227

   3.378   1.356   0.986   0.011   1.397   0.655   3.143   1.382   1.715   3.076

   1.381   1.967   0.216   1.382   1.241   3.056   1.087   2.100   5.601   1.066

   2.187   3.158   1.087   2.062   3.159   1.081   2.066   6.276   1.050   2.161

   0.031   1.109   1.917   4.246   1.111   1.990   6.280   1.109   1.917   2.024

   1.085   2.097   3.161   1.110   1.921   2.078   1.109   1.920   4.204   1.107

   1.897   3.136   1.108   1.927   1.057   1.109   1.921   5.209   1.108   1.930

   5.192   1.107   1.897   3.111   1.109   1.919   1.041   1.107   1.895   3.077

   1.108   1.932   1.005   1.109   1.920   5.143
 GRADIENT          0.000   0.000  -0.000-173.551   0.000   0.000  -2.7091222.113
   0.000-159.235 757.274 -77.749 105.736-232.059   2.453  54.299 126.339********

-107.582 782.120 128.965 242.989-384.383 176.135  92.308  63.153 177.240  42.621

  44.755  87.542 197.413********  31.733   1.809****************  29.265 174.049

  39.056-119.726 680.241  11.633  80.085 128.047  -1.180  47.913 329.253  -0.689

  -6.399  15.533  -2.811 -63.765 169.917  -2.520  12.894 -23.012  -0.562 -15.193

   5.798  -6.005  -1.078   1.864  -2.901 100.552-260.302   5.335   6.215  40.978

  -1.689  85.129 253.560  -5.515 -16.582 -10.036   0.399 -23.526  20.594  -0.096

 -22.654  23.109   0.963 -20.598  27.059   0.843-112.249  44.796 167.293 -21.742

  19.331   0.911   4.252 -21.422   0.297  -5.130 -10.609  -0.193 -20.507   6.560

   0.242   0.283  -2.105   4.935  -2.228   9.288  -0.183  -0.238  -2.977  -4.614

 -18.050  12.831  -1.419   1.258   2.306   7.142   0.644   2.304  -7.443   5.653

  14.751   0.067   4.122  -1.652  -0.700   3.962  -1.890   0.476   4.693  -1.458

   0.613   5.641  14.329  -0.260   4.874  -2.117  -0.170   5.438  15.156   0.112

   4.393  -0.555   1.886   5.011  -1.787  -2.002
       HoF         ACTUAL,  PREDICTED ENERGY CHANGE, RATIO
   264.5610548   177.0409373         -44.0453621   -4.0195137
 UNACCEPTABLE RATIO, REJECTING STEP, REDUCING DMAX TO 0.0500
  MIN SEARCH, CORRECT HESSIAN, TRYING PURE NR STEP
 LAMBDA THAT MINIMIZES ALONG ALL MODES =        0.000000000
 PURE NR-STEP HAS LENGTH   0.85724
 LAMBDA THAT MINIMIZES ALONG ALL MODES =     -263.095729795
 P-RFO-STEP   HAS LENGTH   0.56854
 LAMBDA THAT MINIMIZES ALONG ALL MODES =    -8806.981472115
 QA/TRIM-STEP HAS LENGTH   0.05000

  HEAT OF FORMATION        221.98751561190875    
 PARAMETERS        0.002  -0.003  -0.001   2.234   0.002  -0.001   4.810   1.636
   0.000   9.132   1.792   6.275   2.843   1.290   3.272   4.267   2.179   0.006

   1.403   2.134   0.037   1.469   2.046   6.264   1.447   2.119   6.267   1.414

   2.042   0.035   1.478   2.153   3.108   4.574   0.542   6.282   1.340   1.248

   0.004   1.419   2.084   3.191   1.358   0.497   6.251   1.411   2.081   3.111

   1.339   1.240   6.279   1.364   2.145   6.275   1.377   2.240   3.137   1.428

   2.215   0.046   1.470   1.959   3.159   1.404   2.131   3.106   1.363   0.239

   3.379   1.359   0.988   0.011   1.393   0.650   3.144   1.381   1.719   3.076

   1.381   1.970   0.216   1.381   1.246   3.057   1.087   2.102   5.601   1.065

   2.190   3.158   1.086   2.062   3.159   1.081   2.066   6.276   1.049   2.162

   0.031   1.110   1.918   4.246   1.111   1.991   6.280   1.110   1.917   2.023

   1.085   2.098   3.161   1.110   1.921   2.079   1.110   1.921   4.203   1.108

   1.899   3.136   1.109   1.927   1.057   1.110   1.922   5.209   1.109   1.930

   5.192   1.108   1.900   3.111   1.110   1.920   1.041   1.108   1.898   3.077

   1.109   1.932   1.005   1.110   1.921   5.143
 GRADIENT          0.000   0.000  -0.000********   0.000   0.000  26.107 570.287
   0.000 -47.354 366.487 -23.661  38.923-101.616  -0.583  36.631****************

 -93.299 184.986 127.375  69.591-390.587 196.095  40.729-114.381 193.018  51.739

 -13.540  93.216  94.517-484.173  10.167 476.064****************  15.190  68.964

  29.629 -62.805 310.874   6.727  31.685  73.988  -1.804  31.121 188.305  -0.381

 -24.973 -39.385  -0.809 -40.449 108.318  -2.010 -12.936 -23.667  -0.808  -5.328

   8.522  -3.371   5.968  -4.002  -1.497  31.338-111.649   0.875   3.874  65.985

  -1.747  57.719 120.627  -5.722 -23.855 -32.208   0.539 -22.920  23.820   0.023

 -21.607  24.324   0.926 -21.149  28.813   1.189-123.361  45.526 154.352 -22.544

  20.957   1.021  -1.245 -13.632   0.336  -6.350  -8.337  -0.053 -22.186   9.757

  -0.083   1.162  -1.809   5.966  -1.529  10.651  -0.259   0.636  -2.339  -5.374

 -11.802   6.626  -0.516   0.852   2.719   6.172   0.249   2.776  -6.430   6.399

  15.655   0.084   4.538  -1.434  -0.492   4.446  -1.670   0.274   5.269  -1.328

   0.667   6.351  15.039  -0.262   5.335  -2.010  -0.215   6.039  15.818   0.111

   4.839  -0.546   1.971   5.566  -1.813  -2.076
       HoF         ACTUAL,  PREDICTED ENERGY CHANGE, RATIO
   221.9875156   134.4673982         -22.7804419   -5.9027563
 UNACCEPTABLE RATIO, REJECTING STEP, REDUCING DMAX TO 0.0250
  MIN SEARCH, CORRECT HESSIAN, TRYING PURE NR STEP
 LAMBDA THAT MINIMIZES ALONG ALL MODES =        0.000000000
 PURE NR-STEP HAS LENGTH   0.85724
 LAMBDA THAT MINIMIZES ALONG ALL MODES =     -263.095729795
 P-RFO-STEP   HAS LENGTH   0.56854
 LAMBDA THAT MINIMIZES ALONG ALL MODES =   -18223.250740885
 QA/TRIM-STEP HAS LENGTH   0.02500

  HEAT OF FORMATION        170.59338827732427    
 PARAMETERS        0.001  -0.002  -0.001   2.228   0.001  -0.000   4.814   1.639
   0.000   9.135   1.791   6.274   2.843   1.289   3.273   4.269   2.185   0.006

   1.402   2.127   0.037   1.465   2.049   6.265   1.448   2.112   6.267   1.416

   2.040   0.035   1.478   2.164   3.108   4.570   0.544   6.282   1.339   1.243

   0.004   1.421   2.079   3.191   1.357   0.501   6.251   1.411   2.073   3.111

   1.337   1.235   6.279   1.366   2.144   6.275   1.376   2.240   3.137   1.429

   2.215   0.046   1.472   1.959   3.159   1.403   2.133   3.106   1.362   0.245

   3.379   1.361   0.990   0.011   1.392   0.647   3.144   1.381   1.721   3.076

   1.380   1.971   0.216   1.380   1.248   3.057   1.086   2.102   5.601   1.064

   2.191   3.158   1.086   2.062   3.159   1.081   2.066   6.276   1.048   2.163

   0.031   1.110   1.918   4.247   1.112   1.992   6.280   1.110   1.917   2.023

   1.085   2.098   3.161   1.111   1.922   2.079   1.110   1.922   4.203   1.108

   1.901   3.136   1.110   1.927   1.057   1.111   1.922   5.209   1.109   1.931

   5.192   1.109   1.901   3.111   1.111   1.920   1.041   1.108   1.899   3.077

   1.109   1.932   1.005   1.111   1.921   5.143
 GRADIENT          0.000   0.000  -0.000********   0.000   0.000  45.760 310.927
   0.000  -1.697 223.386 -11.253  12.729 -47.845  -0.184  31.700****************

 -54.083   6.971 109.482 -15.649-229.652 169.603  14.548-140.245 165.008  43.008

 -33.367  79.605  31.067-165.780   1.5302054.712****************  -9.936 -26.540

  10.768 -23.379 116.860   1.595   9.617  60.934  -0.888  13.491  48.849   0.515

 -33.353 -75.744   0.872 -15.545  45.116  -1.474 -27.396 -24.601  -0.694   1.165

   7.344  -2.168  10.057  -7.345   2.875   1.014 -48.149   0.488   3.301  78.488

  -1.766  45.977  68.811  -4.881 -28.415 -42.026   0.678 -22.550  25.207   0.099

 -21.263  24.658   0.942 -21.317  29.658   1.401 -71.024  27.535 117.261 -22.998

  21.783   1.040  -5.400  -8.739   0.453  -5.991  -7.196   0.117 -22.387  10.631

  -0.261   0.945  -2.217   6.946  -0.870  10.137  -0.357   0.668  -1.871  -5.812

  -9.362   3.538  -0.191   0.891   3.101   5.761   0.318   3.194  -5.950   6.919

  15.899   0.099   4.772  -1.197  -0.242   4.741  -1.477   0.021   5.606  -1.285

   0.725   6.617  15.376  -0.261   5.598  -1.967  -0.272   6.345  16.163   0.109

   5.098  -0.552   1.983   5.882  -1.845  -2.084
       HoF         ACTUAL,  PREDICTED ENERGY CHANGE, RATIO
   170.5933883    83.0732708         -11.5816482   -7.1728366
 UNACCEPTABLE RATIO, REJECTING STEP, REDUCING DMAX TO 0.0125
  MIN SEARCH, CORRECT HESSIAN, TRYING PURE NR STEP
 LAMBDA THAT MINIMIZES ALONG ALL MODES =        0.000000000
 PURE NR-STEP HAS LENGTH   0.85724
 LAMBDA THAT MINIMIZES ALONG ALL MODES =     -263.095729795
 P-RFO-STEP   HAS LENGTH   0.56854
 LAMBDA THAT MINIMIZES ALONG ALL MODES =   -37060.708385523
 QA/TRIM-STEP HAS LENGTH   0.01250

  HEAT OF FORMATION        106.22680769994622    
 PARAMETERS        0.001  -0.001  -0.000   2.225   0.000  -0.000   4.816   1.640
   0.000   9.137   1.791   6.274   2.843   1.288   3.273   4.270   2.188   0.005

   1.402   2.123   0.037   1.464   2.051   6.265   1.448   2.109   6.267   1.416

   2.039   0.035   1.477   2.170   3.108   4.568   0.545   6.282   1.339   1.240

   0.004   1.423   2.077   3.191   1.357   0.503   6.251   1.411   2.069   3.111

   1.336   1.232   6.279   1.368   2.143   6.275   1.376   2.239   3.137   1.430

   2.215   0.046   1.472   1.958   3.159   1.403   2.133   3.106   1.362   0.248

   3.379   1.362   0.990   0.011   1.391   0.646   3.144   1.381   1.722   3.076

   1.380   1.972   0.216   1.379   1.249   3.057   1.086   2.103   5.601   1.064

   2.192   3.158   1.086   2.062   3.159   1.081   2.066   6.276   1.047   2.163

   0.031   1.110   1.918   4.247   1.112   1.992   6.280   1.110   1.917   2.023

   1.085   2.098   3.161   1.111   1.922   2.079   1.110   1.922   4.203   1.109

   1.901   3.136   1.110   1.927   1.057   1.111   1.922   5.209   1.110   1.931

   5.192   1.109   1.901   3.111   1.111   1.920   1.041   1.109   1.899   3.077

   1.109   1.932   1.006   1.111   1.921   5.143
 GRADIENT          0.000   0.000  -0.000********   0.000   0.000  56.554 206.197
   0.000  20.858 170.484  -7.775   0.148 -23.173   0.302  28.674********-106.772

 -28.776 -28.086  56.193 -38.162 -59.591  78.156   1.886-100.274  70.196  18.584

 -24.340  31.308  -3.270   7.307  -1.7922235.211********-107.509 -17.157 -82.057

  -0.703  -0.125  12.847  -0.940  -2.214  52.417  -0.621   0.916 -42.881   0.575

 -37.273 -96.760   1.213   2.242   3.111  -0.850 -32.697 -23.530  -0.487   1.857

   3.875  -1.510   7.752 -13.148   2.683 -14.810 -17.691   0.460   1.939  87.691

  -1.871  40.325  44.252  -4.339 -29.764 -48.481   0.417 -22.162  25.988   0.054

 -20.833  24.802   0.950 -21.248  30.108   1.542 -25.385  14.196  53.091 -22.962

  22.140   0.978  -7.312  -6.022   0.358  -5.959  -6.605   0.085 -22.078  10.884

  -0.338   0.553  -2.421   7.584   0.472   7.933  -0.489   0.401  -1.868  -6.786

  -8.182   2.094  -0.031   0.821   3.273   5.652   0.367   3.308  -5.817   7.184

  16.030   0.124   4.913  -1.131  -0.176   4.991  -1.456  -0.058   5.836  -1.246

   0.711   6.799  15.544  -0.267   5.809  -1.938  -0.252   6.564  16.322   0.104

   5.270  -0.548   2.017   6.062  -1.848  -2.112
       HoF         ACTUAL,  PREDICTED ENERGY CHANGE, RATIO
   106.2268077    18.7066902          -5.8389411   -3.2037813
 UNACCEPTABLE RATIO, REJECTING STEP, REDUCING DMAX TO 0.0062
  MIN SEARCH, CORRECT HESSIAN, TRYING PURE NR STEP
 LAMBDA THAT MINIMIZES ALONG ALL MODES =        0.000000000
 PURE NR-STEP HAS LENGTH   0.85724
 LAMBDA THAT MINIMIZES ALONG ALL MODES =     -263.095729795
 P-RFO-STEP   HAS LENGTH   0.56854
 LAMBDA THAT MINIMIZES ALONG ALL MODES =   -74738.159551754
 QA/TRIM-STEP HAS LENGTH   0.00625

  HEAT OF FORMATION        88.702843504652265    
 PARAMETERS        0.000  -0.000  -0.000   2.224   0.000  -0.000   4.817   1.640
   0.000   9.138   1.791   6.273   2.843   1.288   3.273   4.271   2.189   0.005

   1.402   2.122   0.037   1.463   2.051   6.265   1.449   2.108   6.267   1.417

   2.038   0.034   1.477   2.172   3.108   4.567   0.546   6.282   1.339   1.238

   0.005   1.423   2.076   3.191   1.356   0.504   6.251   1.411   2.067   3.111

   1.336   1.231   6.279   1.368   2.142   6.275   1.376   2.239   3.137   1.430

   2.215   0.046   1.473   1.958   3.159   1.403   2.133   3.106   1.362   0.249

   3.379   1.362   0.990   0.011   1.390   0.646   3.145   1.381   1.723   3.076

   1.380   1.972   0.216   1.379   1.250   3.057   1.086   2.103   5.601   1.063

   2.192   3.158   1.086   2.062   3.159   1.081   2.066   6.276   1.047   2.163

   0.031   1.110   1.918   4.247   1.112   1.993   6.280   1.110   1.917   2.022

   1.085   2.098   3.161   1.111   1.922   2.080   1.110   1.922   4.203   1.109

   1.901   3.136   1.110   1.927   1.057   1.111   1.922   5.209   1.110   1.931

   5.192   1.109   1.902   3.111   1.111   1.920   1.041   1.109   1.900   3.077

   1.110   1.932   1.006   1.111   1.921   5.143
 GRADIENT          0.000   0.000  -0.000********   0.000   0.000  62.393 158.959
   0.000  32.133 149.764  -6.995  -6.254 -11.666   0.611  26.898********2342.060

 -26.060 -61.981  21.572 -58.993   8.003  32.021  -3.884 -97.700  24.362  10.872

 -24.666   9.259 -21.319  97.990  -2.989 582.364********2344.059 -15.022 -96.760

  -1.085  12.467 -41.505  -1.932  -8.087  48.627  -1.048  -6.382 -95.754   0.237

 -39.658-105.641   1.181  12.587 -21.093  -0.381 -35.842 -23.442  -0.507   1.388

   1.466  -1.082   5.866 -18.352   0.902 -22.894  -2.806   0.480   1.263  93.512

  -1.959  37.948  32.015  -4.036 -30.218 -52.300   0.256 -21.983  26.432  -0.024

 -20.618  24.904   0.968 -21.253  30.341   1.610 -14.535   8.317  19.095 -22.971

  22.283   0.950  -8.313  -4.564   0.213  -6.189  -6.312   0.027 -21.978  11.046

  -0.357   0.501  -2.260   7.558   1.046   6.510  -0.184   0.342  -1.970  -7.375

  -7.612   1.385   0.062   0.698   3.308   5.618   0.333   3.331  -5.722   7.298

  16.147   0.135   4.975  -1.126  -0.179   5.116  -1.450  -0.062   5.930  -1.213

   0.698   6.908  15.622  -0.270   5.915  -1.916  -0.235   6.676  16.393   0.101

   5.354  -0.547   2.035   6.145  -1.849  -2.128
       HoF         ACTUAL,  PREDICTED ENERGY CHANGE, RATIO
    88.7028435     1.1827260          -2.9315331   -0.4034497
 UNACCEPTABLE RATIO, REJECTING STEP, REDUCING DMAX TO 0.0031
  MIN SEARCH, CORRECT HESSIAN, TRYING PURE NR STEP
 LAMBDA THAT MINIMIZES ALONG ALL MODES =        0.000000000
 PURE NR-STEP HAS LENGTH   0.85724
 LAMBDA THAT MINIMIZES ALONG ALL MODES =     -263.095729795
 P-RFO-STEP   HAS LENGTH   0.56854
 LAMBDA THAT MINIMIZES ALONG ALL MODES =  -150094.349033234
 QA/TRIM-STEP HAS LENGTH   0.00312

  HEAT OF FORMATION        87.015389083651826    
 PARAMETERS        0.000  -0.000  -0.000   2.223   0.000  -0.000   4.818   1.641
   0.000   9.138   1.791   6.273   2.843   1.288   3.273   4.271   2.190   0.005

   1.402   2.121   0.037   1.462   2.052   6.265   1.449   2.107   6.267   1.417

   2.038   0.034   1.477   2.174   3.108   4.567   0.546   6.282   1.339   1.237

   0.005   1.423   2.075   3.191   1.356   0.504   6.251   1.411   2.066   3.111

   1.336   1.230   6.279   1.369   2.142   6.275   1.376   2.239   3.137   1.430

   2.215   0.046   1.473   1.958   3.159   1.403   2.134   3.106   1.362   0.250

   3.379   1.363   0.991   0.011   1.390   0.645   3.145   1.381   1.723   3.076

   1.380   1.972   0.216   1.379   1.250   3.057   1.086   2.103   5.601   1.063

   2.192   3.158   1.086   2.062   3.159   1.081   2.066   6.276   1.047   2.164

   0.031   1.111   1.918   4.247   1.112   1.993   6.280   1.110   1.917   2.022

   1.085   2.098   3.161   1.111   1.922   2.080   1.110   1.922   4.203   1.109

   1.902   3.136   1.110   1.927   1.057   1.111   1.922   5.209   1.110   1.931

   5.192   1.109   1.902   3.111   1.112   1.920   1.041   1.109   1.900   3.077

   1.110   1.932   1.006   1.111   1.921   5.143
 GRADIENT          0.000   0.000  -0.000-500.940   0.000   0.000  65.365 136.756
   0.000  37.372 140.399  -6.984  -9.182  -6.130   0.786  26.471********1099.286

 -29.064 -91.518   9.306 -78.771  23.440  18.756  -7.671-113.922  11.251  12.801

 -31.422   3.052 -31.069 145.227  -3.668 126.884********1102.833 -14.168-103.281

  -0.795  19.325 -69.411  -2.525 -10.798  47.291  -1.261 -10.574-125.103   0.137

 -40.798-110.195   1.224  18.461 -34.552  -0.151 -37.653 -23.540  -0.538   1.432

   0.400  -0.859   5.736 -19.542   0.572 -26.634   4.298   0.529   0.996  96.230

  -1.992  36.905  26.369  -3.867 -30.530 -54.135   0.201 -21.921  26.633  -0.056

 -20.543  24.972   0.976 -21.293  30.456   1.635 -13.404   7.710   7.693 -23.015

  22.360   0.942  -8.893  -3.809   0.157  -6.301  -6.168   0.006 -21.987  11.137

  -0.366   0.533  -2.162   7.495   1.162   6.280   0.101   0.367  -2.001  -7.565

  -7.350   1.015   0.106   0.640   3.321   5.585   0.312   3.350  -5.655   7.352

  16.204   0.139   5.003  -1.122  -0.176   5.168  -1.443  -0.068   5.968  -1.199

   0.697   6.961  15.661  -0.272   5.960  -1.907  -0.232   6.723  16.427   0.100

   5.391  -0.546   2.043   6.183  -1.848  -2.134
       HoF         ACTUAL,  PREDICTED ENERGY CHANGE, RATIO
    87.0153891    -0.5047284          -1.4687864    0.3436363
     STEPSIZE USED IS  0.00312
 CALCULATED STEP
     0.000147 -0.000186 -0.000069  0.000792  0.000116 -0.000044 -0.000528 -0.000292
     0.000028 -0.000447  0.000026  0.000126  0.000014  0.000121 -0.000009 -0.000317
    -0.000698  0.000093  0.000099  0.000832  0.000006  0.000499 -0.000349 -0.000058
    -0.000104  0.000772 -0.000006 -0.000224  0.000274  0.000012  0.000113 -0.001340
     0.000034  0.000488 -0.000249  0.000015  0.000071  0.000725 -0.000015 -0.000323
     0.000582  0.000022  0.000095 -0.000449 -0.000025 -0.000047  0.000969  0.000000
     0.000199  0.000618 -0.000027 -0.000349  0.000182  0.000002  0.000095  0.000088
     0.000008 -0.000145  0.000010  0.000009 -0.000174  0.000073 -0.000003  0.000046
    -0.000140 -0.000001  0.000060 -0.000732 -0.000027 -0.000227 -0.000141  0.000001
     0.000225  0.000303 -0.000032  0.000039 -0.000246 -0.000007  0.000028 -0.000170
    -0.000008  0.000092 -0.000270 -0.000029  0.000040 -0.000100 -0.000000  0.000106
    -0.000180 -0.000006  0.000021 -0.000010 -0.000001 -0.000009 -0.000011 -0.000001
     0.000109 -0.000086  0.000002 -0.000044 -0.000023 -0.000051 -0.000057 -0.000091
    -0.000003 -0.000037 -0.000009  0.000050  0.000003 -0.000035 -0.000001 -0.000038
    -0.000044 -0.000038 -0.000042 -0.000059  0.000036 -0.000086 -0.000137 -0.000003
    -0.000065 -0.000008 -0.000000 -0.000078 -0.000033 -0.000001 -0.000083 -0.000035
    -0.000006 -0.000083 -0.000133  0.000000 -0.000071 -0.000003  0.000000 -0.000081
    -0.000138 -0.000002 -0.000068 -0.000012 -0.000015 -0.000084 -0.000030  0.000013
     NEW TRUST RADIUS =  0.00312

     HESSIAN IS BEING UPDATED USING THE BFGS UPDATE

*REMARK   3 HET = Not identified; C 22 H 20 N O 5    =    48 atoms res:    1
 PM7 CHARGE=+1 EF NOXYZ PRNT=2 PDBOUT COMPFG GRAPHF
 3,16,17-trimethoxy-12-methyl-6,8-dioxa-12-azoniapentacyclo[11.8.0.02,10.05,9.014,19]henicosa-1(13),2,4,9,11,14,16,18,20-nonaene

  O(HETATM    1  O1  HET A   1)   0.00014673 +1   -0.0001863 +1   -0.0000686 +1
  O(HETATM    2  O2  HET A   1)   2.22281411 +1    0.0066730 +1   -0.0024967 +1     1     0     0
  O(HETATM    3  O3  HET A   1)   4.81783916 +1   94.0015152 +1    0.0016275 +1     2     1     0
  O(HETATM    4  O4  HET A   1)   9.13834081 +1  102.6140392 +1   -0.5694499 +1     3     2     1
  O(HETATM    5  O5  HET A   1)   2.84291615 +1   73.7962073 +1 -172.4949604 +1     4     3     2
  N(HETATM    6  N   HET A   1)   4.27111716 +1  125.4549575 +1    0.2782809 +1     1     2     3
  C(HETATM    7  C1  HET A   1)   1.40160051 +1  121.5191447 +1    2.1191993 +1     6     1     2
  C(HETATM    8  C2  HET A   1)   1.46205590 +1  117.5571214 +1   -1.0338438 +1     7     6     1
  C(HETATM    9  C3  HET A   1)   1.44874517 +1  120.7207869 +1   -0.9115574 +1     8     7     6
  C(HETATM   10  C4  HET A   1)   1.41706113 +1  116.7779299 +1    1.9754281 +1     9     8     7
  C(HETATM   11  C5  HET A   1)   1.47674353 +1  124.5365896 +1  178.0589090 +1     7     6     1
  C(HETATM   12  C6  HET A   1)   4.56694345 +1   31.2934258 +1   -0.0765149 +1     2     1     3
  C(HETATM   13  C7  HET A   1)   1.33897693 +1   70.9026665 +1    0.2587169 +1     1     2     3
  C(HETATM   14  C8  HET A   1)   1.42346397 +1  118.9114075 +1 -177.1812449 +1    11     7     6
  C(HETATM   15  C9  HET A   1)   1.35627121 +1   28.8799021 +1   -1.8283820 +1     3     2     1
  C(HETATM   16  C10 HET A   1)   1.41134114 +1  118.3968164 +1  178.2484816 +1     8     7     6
  C(HETATM   17  C11 HET A   1)   1.33589752 +1   70.4862026 +1   -0.2290967 +1     2     1     3
  C(HETATM   18  C12 HET A   1)   1.36872700 +1  122.7413768 +1   -0.4939421 +1    16     8     7
  C(HETATM   19  C13 HET A   1)   1.37585277 +1  128.2946020 +1  179.7188501 +1    17     2     1
  C(HETATM   20  C14 HET A   1)   1.43012628 +1  126.8818098 +1    2.6458728 +1    11     7     6
  C(HETATM   21  C15 HET A   1)   1.47271533 +1  112.1997803 +1 -178.9965039 +1     6     1     2
  C(HETATM   22  C16 HET A   1)   1.40303393 +1  122.2472901 +1  177.9468749 +1    14    11     7
  C(HETATM   23  C17 HET A   1)   1.36173371 +1   14.3344096 +1 -166.4018163 +1     4     3     2
  C(HETATM   24  C18 HET A   1)   1.36258479 +1   56.7550240 +1    0.6492050 +1     5     4     3
  C(HETATM   25  C19 HET A   1)   1.38998027 +1   36.9732429 +1 -179.8299751 +1     2     1     3
  C(HETATM   26  C20 HET A   1)   1.38085519 +1   98.7103230 +1  176.2624305 +1     3     2     1
  C(HETATM   27  C21 HET A   1)   1.38030148 +1  112.9948767 +1   12.3923888 +1     4     3     2
  C(HETATM   28  C22 HET A   1)   1.37920054 +1   71.6130594 +1  175.1569482 +1     5     4     3
  H(HETATM   29  H6  HET A   1)   1.08619885 +1  120.5035108 +1  -39.0728717 +1    12     6     1
  H(HETATM   30  H10 HET A   1)   1.06319886 +1  125.6173661 +1 -179.0459755 +1    16     8     7
  H(HETATM   31  H12 HET A   1)   1.08600363 +1  118.1383854 +1 -179.0275693 +1    18    16     8
  H(HETATM   32  H13 HET A   1)   1.08106716 +1  118.3953759 +1   -0.4383297 +1    19    17     2
  H(HETATM   33  H14 HET A   1)   1.04694867 +1  123.9627539 +1    1.7491276 +1    20    11     7
  H(HETATM   34 1H15 HET A   1)   1.11051559 +1  109.8926274 +1 -116.6521275 +1    21     6     1
  H(HETATM   35 2H15 HET A   1)   1.11222415 +1  114.1706245 +1   -0.1713019 +1    21     6     1
  H(HETATM   36 3H15 HET A   1)   1.11012303 +1  109.8423818 +1  115.8721131 +1    21     6     1
  H(HETATM   37  H16 HET A   1)   1.08533437 +1  120.2311823 +1 -178.8946732 +1    22    14    11
  H(HETATM   38 1H19 HET A   1)   1.11101156 +1  110.1198186 +1  119.1526175 +1    25     2     1
  H(HETATM   39 2H19 HET A   1)   1.11026256 +1  110.1382975 +1 -119.1922863 +1    25     2     1
  H(HETATM   40 1H20 HET A   1)   1.10906117 +1  108.9490471 +1  179.6657575 +1    26     3     2
  H(HETATM   41 2H20 HET A   1)   1.11026788 +1  110.4089964 +1   60.5801241 +1    26     3     2
  H(HETATM   42 3H20 HET A   1)   1.11105513 +1  110.1355987 +1  -61.5690618 +1    26     3     2
  H(HETATM   43 1H21 HET A   1)   1.10998966 +1  110.6298836 +1  -62.5320654 +1    27     4     3
  H(HETATM   44 2H21 HET A   1)   1.10913084 +1  108.9583896 +1  178.2726648 +1    27     4     3
  H(HETATM   45 3H21 HET A   1)   1.11152675 +1  109.9837956 +1   59.6595005 +1    27     4     3
  H(HETATM   46 1H22 HET A   1)   1.10897463 +1  108.8475104 +1  176.3045061 +1    28     5     4
  H(HETATM   47 2H22 HET A   1)   1.10963424 +1  110.6949739 +1   57.6166694 +1    28     5     4
  H(HETATM   48 3H22 HET A   1)   1.11138170 +1  110.0809732 +1  -65.3297434 +1    28     5     4

 XPARAM 
  1  1    0.0001  1  2   -0.0002  1  3   -0.0001  2  1    2.2228  2  2    0.0001
  2  3   -0.0000  3  1    4.8178  3  2    1.6406  3  3    0.0000  4  1    9.1383
  4  2    1.7910  4  3    6.2732  5  1    2.8429  5  2    1.2880  5  3    3.2726
  6  1    4.2711  6  2    2.1896  6  3    0.0049  7  1    1.4016  7  2    2.1209
  7  3    0.0370  8  1    1.4621  8  2    2.0518  8  3    6.2651  9  1    1.4487
  9  2    2.1070  9  3    6.2673 10  1    1.4171 10  2    2.0382 10  3    0.0345
 11  1    1.4767 11  2    2.1736 11  3    3.1077 12  1    4.5669 12  2    0.5462
 12  3    6.2818 13  1    1.3390 13  2    1.2375 13  3    0.0045 14  1    1.4235
 14  2    2.0754 14  3    3.1908 15  1    1.3563 15  2    0.5040 15  3    6.2513
 16  1    1.4113 16  2    2.0664 16  3    3.1110 17  1    1.3359 17  2    1.2302
 17  3    6.2792 18  1    1.3687 18  2    2.1422 18  3    6.2746 19  1    1.3759
 19  2    2.2392 19  3    3.1367 20  1    1.4301 20  2    2.2145 20  3    0.0462
 21  1    1.4727 21  2    1.9583 21  3    3.1591 22  1    1.4030 22  2    2.1336
 22  3    3.1058 23  1    1.3617 23  2    0.2502 23  3    3.3789 24  1    1.3626
 24  2    0.9906 24  3    0.0113 25  1    1.3900 25  2    0.6453 25  3    3.1446
 26  1    1.3809 26  2    1.7228 26  3    3.0764 27  1    1.3803 27  2    1.9721
 27  3    0.2163 28  1    1.3792 28  2    1.2499 28  3    3.0571 29  1    1.0862
 29  2    2.1032 29  3    5.6012 30  1    1.0632 30  2    2.1924 30  3    3.1582
 31  1    1.0860 31  2    2.0619 31  3    3.1586 32  1    1.0811 32  2    2.0664
 32  3    6.2755 33  1    1.0469 33  2    2.1636 33  3    0.0305 34  1    1.1105
 34  2    1.9180 34  3    4.2472 35  1    1.1122 35  2    1.9927 35  3    6.2802
 36  1    1.1101 36  2    1.9171 36  3    2.0223 37  1    1.0853 37  2    2.0984
 37  3    3.1609 38  1    1.1110 38  2    1.9220 38  3    2.0796 39  1    1.1103
 39  2    1.9223 39  3    4.2029 40  1    1.1091 40  2    1.9015 40  3    3.1358
 41  1    1.1103 41  2    1.9270 41  3    1.0573 42  1    1.1111 42  2    1.9222
 42  3    5.2086 43  1    1.1100 43  2    1.9309 43  3    5.1918 44  1    1.1091
 44  2    1.9017 44  3    3.1114 45  1    1.1115 45  2    1.9196 45  3    1.0413
 46  1    1.1090 46  2    1.8997 46  3    3.0771 47  1    1.1096 47  2    1.9320
 47  3    1.0056 48  1    1.1114 48  2    1.9213 48  3    5.1430
 grad
       0.00001    0.00002   -0.00000 -500.94028    0.00000    0.00000   65.36478  136.75619
       0.00000   37.37214  140.39875   -6.98399   -9.18171   -6.12984    0.78588   26.47064
   -1273.59560 1099.28579  -29.06450  -91.51818    9.30574  -78.77087   23.44044   18.75573
      -7.67121 -113.92184   11.25140   12.80115  -31.42223    3.05199  -31.06869  145.22669
      -3.66810  126.88432-2022.79227 1102.83344  -14.16798 -103.28138   -0.79502   19.32504
     -69.41082   -2.52495  -10.79845   47.29104   -1.26058  -10.57366 -125.10316    0.13724
     -40.79815 -110.19532    1.22439   18.46122  -34.55176   -0.15099  -37.65316  -23.54009
      -0.53826    1.43189    0.39973   -0.85927    5.73579  -19.54204    0.57195  -26.63376
       4.29802    0.52904    0.99647   96.22976   -1.99187   36.90520   26.36899   -3.86702
     -30.52994  -54.13499    0.20075  -21.92104   26.63321   -0.05575  -20.54280   24.97238
       0.97615  -21.29255   30.45647    1.63450  -13.40355    7.70979    7.69259  -23.01550
      22.35966    0.94214   -8.89319   -3.80943    0.15677   -6.30145   -6.16841    0.00612
     -21.98736   11.13719   -0.36599    0.53258   -2.16162    7.49476    1.16161    6.28020
       0.10063    0.36734   -2.00058   -7.56511   -7.34991    1.01538    0.10563    0.64049
       3.32138    5.58529    0.31159    3.34985   -5.65491    7.35213   16.20352    0.13894
       5.00310   -1.12224   -0.17552    5.16834   -1.44326   -0.06806    5.96789   -1.19866
       0.69695    6.96076   15.66078   -0.27173    5.96033   -1.90741   -0.23215    6.72318
      16.42706    0.10023    5.39099   -0.54580    2.04280    6.18284   -1.84837   -2.13448
 CYCLE:     2 TIME:   0.234 TIME LEFT:  2.00D  GRAD.:  2928.860 HEAT:  87.01539

          HESSIAN HAS  0 NEGATIVE EIGENVALUE(S)
  MIN SEARCH, CORRECT HESSIAN, TRYING PURE NR STEP
 LAMBDA THAT MINIMIZES ALONG ALL MODES =        0.000000000
 PURE NR-STEP HAS LENGTH  37.86091
 LAMBDA THAT MINIMIZES ALONG ALL MODES =     -456.849349183
 P-RFO-STEP   HAS LENGTH   0.98430
 LAMBDA THAT MINIMIZES ALONG ALL MODES =  -150381.603663849
 QA/TRIM-STEP HAS LENGTH   0.00312

  HEAT OF FORMATION        85.321995163176325    
 PARAMETERS        0.000  -0.000  -0.000   2.224   0.000  -0.000   4.817   1.640
   0.000   9.138   1.791   6.273   2.843   1.288   3.273   4.271   2.189   0.005

   1.402   2.122   0.037   1.463   2.051   6.265   1.449   2.108   6.267   1.417

   2.038   0.035   1.477   2.172   3.108   4.567   0.547   6.281   1.339   1.238

   0.005   1.423   2.076   3.191   1.356   0.504   6.251   1.411   2.067   3.111

   1.336   1.231   6.279   1.368   2.142   6.275   1.376   2.239   3.137   1.430

   2.214   0.046   1.473   1.958   3.159   1.403   2.133   3.106   1.362   0.249

   3.379   1.362   0.990   0.011   1.390   0.646   3.145   1.381   1.723   3.076

   1.380   1.972   0.216   1.379   1.250   3.057   1.086   2.103   5.601   1.063

   2.192   3.158   1.086   2.062   3.159   1.081   2.066   6.276   1.047   2.163

   0.031   1.110   1.918   4.247   1.112   1.993   6.280   1.110   1.917   2.022

   1.085   2.098   3.161   1.111   1.922   2.080   1.110   1.922   4.203   1.109

   1.901   3.136   1.110   1.927   1.057   1.111   1.922   5.209   1.110   1.931

   5.192   1.109   1.902   3.111   1.111   1.920   1.041   1.109   1.900   3.077

   1.110   1.932   1.006   1.111   1.921   5.143
 GRADIENT          0.000   0.000  -0.000  24.009   0.000   0.000  61.102 176.769
   0.000  28.510 147.821  -9.595  -6.058 -16.077   0.912  31.218 610.326-480.269

 -27.481 -50.272  -1.882 -61.020   4.835   2.211  -5.676-101.958  -2.892  10.801

 -26.073  -3.098 -17.706  91.639  -1.405-122.174 620.332-473.114 -14.792 -96.473

  -0.321  11.809 -36.168  -1.548  -8.836  47.886  -1.465  -6.410 -95.799  -0.219

 -40.736-103.519   1.287  12.614 -21.081  -0.248 -36.131 -24.324  -0.582   1.904

   3.172  -0.862   5.505 -19.160   0.294 -21.989  -5.058   0.775   2.288  92.847

  -1.873  39.332  33.506  -3.739 -30.211 -52.346   0.141 -21.956  26.448  -0.113

 -20.568  24.838   0.985 -21.274  30.294   1.637 -13.106   7.458  -2.821 -22.969

  22.303   0.930  -8.273  -4.556   0.108  -6.186  -6.349  -0.027 -22.040  11.128

  -0.405   0.469  -2.117   7.328   1.123   6.207   0.427   0.313  -2.063  -7.656

  -7.678   1.436   0.152   0.663   3.295   5.664   0.364   3.327  -5.699   7.300

  16.151   0.142   4.964  -1.134  -0.186   5.138  -1.451  -0.061   5.919  -1.210

   0.703   6.914  15.628  -0.272   5.937  -1.919  -0.239   6.679  16.381   0.099

   5.366  -0.549   2.038   6.139  -1.853  -2.130
       HoF         ACTUAL,  PREDICTED ENERGY CHANGE, RATIO
    85.3219952    -1.6933939          -2.1800370    0.7767730
     STEPSIZE USED IS  0.00312
 CALCULATED STEP
     0.000109 -0.000162 -0.000049  0.000918  0.000066 -0.000011 -0.000512 -0.000439
     0.000078 -0.000461 -0.000272  0.000201 -0.000001  0.000046  0.000029 -0.000285
    -0.000239 -0.000305  0.000125  0.000800  0.000029  0.000487 -0.000377 -0.000034
    -0.000109  0.000733  0.000017 -0.000197  0.000250  0.000037  0.000124 -0.001349
     0.000061  0.000362  0.000465 -0.000386  0.000074  0.000705  0.000010 -0.000310
     0.000546  0.000049  0.000045 -0.000478 -0.000001 -0.000038  0.000933  0.000027
     0.000170  0.000589 -0.000002 -0.000350  0.000148  0.000029  0.000111  0.000064
     0.000035 -0.000114 -0.000011  0.000036 -0.000166  0.000046  0.000024  0.000058
    -0.000162  0.000026  0.000017 -0.000756 -0.000003 -0.000233 -0.000162  0.000026
     0.000196  0.000278 -0.000008  0.000041 -0.000270  0.000020  0.000052 -0.000189
     0.000019  0.000080 -0.000295 -0.000003  0.000040 -0.000106  0.000004  0.000111
    -0.000184  0.000001  0.000024 -0.000014  0.000006 -0.000010 -0.000017  0.000007
     0.000118 -0.000089  0.000010 -0.000044 -0.000028 -0.000044 -0.000059 -0.000098
     0.000004 -0.000034 -0.000013  0.000057  0.000007 -0.000039  0.000006 -0.000035
    -0.000049 -0.000031 -0.000042 -0.000064  0.000043 -0.000084 -0.000142  0.000005
    -0.000060 -0.000012  0.000007 -0.000079 -0.000039  0.000006 -0.000085 -0.000040
     0.000001 -0.000082 -0.000138  0.000007 -0.000067 -0.000007  0.000007 -0.000080
    -0.000143  0.000005 -0.000063 -0.000016 -0.000008 -0.000086 -0.000036  0.000020
     NEW TRUST RADIUS =  0.00442
*REMARK   3 HET = Not identified; C 22 H 20 N O 5    =    48 atoms res:    1
 PM7 CHARGE=+1 EF NOXYZ PRNT=2 PDBOUT COMPFG GRAPHF
 3,16,17-trimethoxy-12-methyl-6,8-dioxa-12-azoniapentacyclo[11.8.0.02,10.05,9.014,19]henicosa-1(13),2,4,9,11,14,16,18,20-nonaene

  O(HETATM    1  O1  HET A   1)   0.00025580 +1   -0.0003488 +1   -0.0001177 +1
  O(HETATM    2  O2  HET A   1)   2.22373168 +1    0.0104510 +1   -0.0031409 +1     1     0     0
  O(HETATM    3  O3  HET A   1)   4.81732688 +1   93.9763488 +1    0.0061249 +1     2     1     0
  O(HETATM    4  O4  HET A   1)   9.13787943 +1  102.5984299 +1   -0.5579191 +1     3     2     1
  O(HETATM    5  O5  HET A   1)   2.84291537 +1   73.7988236 +1 -172.4933035 +1     4     3     2
  N(HETATM    6  N   HET A   1)   4.27083188 +1  125.4412474 +1    0.2608120 +1     1     2     3
  C(HETATM    7  C1  HET A   1)   1.40172586 +1  121.5649781 +1    2.1208851 +1     6     1     2
  C(HETATM    8  C2  HET A   1)   1.46254316 +1  117.5355222 +1   -1.0358149 +1     7     6     1
  C(HETATM    9  C3  HET A   1)   1.44863607 +1  120.7627949 +1   -0.9105832 +1     8     7     6
  C(HETATM   10  C4  HET A   1)   1.41686366 +1  116.7922473 +1    1.9775554 +1     9     8     7
  C(HETATM   11  C5  HET A   1)   1.47686727 +1  124.4592928 +1  178.0624114 +1     7     6     1
  C(HETATM   12  C6  HET A   1)   4.56730591 +1   31.3200421 +1   -0.0986225 +1     2     1     3
  C(HETATM   13  C7  HET A   1)   1.33905107 +1   70.9430793 +1    0.2593031 +1     1     2     3
  C(HETATM   14  C8  HET A   1)   1.42315354 +1  118.9426700 +1 -177.1784309 +1    11     7     6
  C(HETATM   15  C9  HET A   1)   1.35631629 +1   28.8525113 +1   -1.8284363 +1     3     2     1
  C(HETATM   16  C10 HET A   1)   1.41130360 +1  118.4502928 +1  178.2500515 +1     8     7     6
  C(HETATM   17  C11 HET A   1)   1.33606778 +1   70.5199504 +1   -0.2291936 +1     2     1     3
  C(HETATM   18  C12 HET A   1)   1.36837680 +1  122.7498366 +1   -0.4922887 +1    16     8     7
  C(HETATM   19  C13 HET A   1)   1.37596349 +1  128.2982435 +1  179.7208758 +1    17     2     1
  C(HETATM   20  C14 HET A   1)   1.43001192 +1  126.8811729 +1    2.6479542 +1    11     7     6
  C(HETATM   21  C15 HET A   1)   1.47254900 +1  112.2024189 +1 -178.9951381 +1     6     1     2
  C(HETATM   22  C16 HET A   1)   1.40309202 +1  122.2380128 +1  177.9483484 +1    14    11     7
  C(HETATM   23  C17 HET A   1)   1.36175096 +1   14.2910872 +1 -166.4019875 +1     4     3     2
  C(HETATM   24  C18 HET A   1)   1.36235172 +1   56.7457527 +1    0.6507026 +1     5     4     3
  C(HETATM   25  C19 HET A   1)   1.39017628 +1   36.9891916 +1 -179.8304103 +1     2     1     3
  C(HETATM   26  C20 HET A   1)   1.38089619 +1   98.6948409 +1  176.2635641 +1     3     2     1
  C(HETATM   27  C21 HET A   1)   1.38035316 +1  112.9840212 +1   12.3934621 +1     4     3     2
  C(HETATM   28  C22 HET A   1)   1.37928042 +1   71.5961831 +1  175.1567676 +1     5     4     3
  H(HETATM   29  H6  HET A   1)   1.08623879 +1  120.4974565 +1  -39.0726434 +1    12     6     1
  H(HETATM   30  H10 HET A   1)   1.06330945 +1  125.6067982 +1 -179.0459031 +1    16     8     7
  H(HETATM   31  H12 HET A   1)   1.08602730 +1  118.1375668 +1 -179.0272320 +1    18    16     8
  H(HETATM   32  H13 HET A   1)   1.08105699 +1  118.3944301 +1   -0.4379436 +1    19    17     2
  H(HETATM   33  H14 HET A   1)   1.04706635 +1  123.9576816 +1    1.7496855 +1    20    11     7
  H(HETATM   34 1H15 HET A   1)   1.11047143 +1  109.8910307 +1 -116.6546289 +1    21     6     1
  H(HETATM   35 2H15 HET A   1)   1.11216520 +1  114.1650245 +1   -0.1710682 +1    21     6     1
  H(HETATM   36 3H15 HET A   1)   1.11008953 +1  109.8416428 +1  115.8753748 +1    21     6     1
  H(HETATM   37  H16 HET A   1)   1.08534136 +1  120.2289293 +1 -178.8943312 +1    22    14    11
  H(HETATM   38 1H19 HET A   1)   1.11097651 +1  110.1170224 +1  119.1508392 +1    25     2     1
  H(HETATM   39 2H19 HET A   1)   1.11022044 +1  110.1346401 +1 -119.1898235 +1    25     2     1
  H(HETATM   40 1H20 HET A   1)   1.10897688 +1  108.9409040 +1  179.6660283 +1    26     3     2
  H(HETATM   41 2H20 HET A   1)   1.11020756 +1  110.4083017 +1   60.5805233 +1    26     3     2
  H(HETATM   42 3H20 HET A   1)   1.11097600 +1  110.1333695 +1  -61.5686989 +1    26     3     2
  H(HETATM   43 1H21 HET A   1)   1.10990514 +1  110.6275679 +1  -62.5319946 +1    27     4     3
  H(HETATM   44 2H21 HET A   1)   1.10904926 +1  108.9504685 +1  178.2730936 +1    27     4     3
  H(HETATM   45 3H21 HET A   1)   1.11146024 +1  109.9834110 +1   59.6599217 +1    27     4     3
  H(HETATM   46 1H22 HET A   1)   1.10889486 +1  108.8393118 +1  176.3047924 +1    28     5     4
  H(HETATM   47 2H22 HET A   1)   1.10957139 +1  110.6940846 +1   57.6162265 +1    28     5     4
  H(HETATM   48 3H22 HET A   1)   1.11129620 +1  110.0789308 +1  -65.3285955 +1    28     5     4

 XPARAM 
  1  1    0.0003  1  2   -0.0003  1  3   -0.0001  2  1    2.2237  2  2    0.0002
  2  3   -0.0001  3  1    4.8173  3  2    1.6402  3  3    0.0001  4  1    9.1379
  4  2    1.7907  4  3    6.2734  5  1    2.8429  5  2    1.2880  5  3    3.2726
  6  1    4.2708  6  2    2.1894  6  3    0.0046  7  1    1.4017  7  2    2.1217
  7  3    0.0370  8  1    1.4625  8  2    2.0514  8  3    6.2651  9  1    1.4486
  9  2    2.1077  9  3    6.2673 10  1    1.4169 10  2    2.0384 10  3    0.0345
 11  1    1.4769 11  2    2.1722 11  3    3.1078 12  1    4.5673 12  2    0.5466
 12  3    6.2815 13  1    1.3391 13  2    1.2382 13  3    0.0045 14  1    1.4232
 14  2    2.0759 14  3    3.1908 15  1    1.3563 15  2    0.5036 15  3    6.2513
 16  1    1.4113 16  2    2.0673 16  3    3.1111 17  1    1.3361 17  2    1.2308
 17  3    6.2792 18  1    1.3684 18  2    2.1424 18  3    6.2746 19  1    1.3760
 19  2    2.2392 19  3    3.1367 20  1    1.4300 20  2    2.2145 20  3    0.0462
 21  1    1.4725 21  2    1.9583 21  3    3.1591 22  1    1.4031 22  2    2.1335
 22  3    3.1058 23  1    1.3618 23  2    0.2494 23  3    3.3789 24  1    1.3624
 24  2    0.9904 24  3    0.0114 25  1    1.3902 25  2    0.6456 25  3    3.1446
 26  1    1.3809 26  2    1.7225 26  3    3.0764 27  1    1.3804 27  2    1.9719
 27  3    0.2163 28  1    1.3793 28  2    1.2496 28  3    3.0571 29  1    1.0862
 29  2    2.1031 29  3    5.6012 30  1    1.0633 30  2    2.1923 30  3    3.1582
 31  1    1.0860 31  2    2.0619 31  3    3.1586 32  1    1.0811 32  2    2.0664
 32  3    6.2755 33  1    1.0471 33  2    2.1635 33  3    0.0305 34  1    1.1105
 34  2    1.9180 34  3    4.2472 35  1    1.1122 35  2    1.9926 35  3    6.2802
 36  1    1.1101 36  2    1.9171 36  3    2.0224 37  1    1.0853 37  2    2.0984
 37  3    3.1609 38  1    1.1110 38  2    1.9219 38  3    2.0796 39  1    1.1102
 39  2    1.9222 39  3    4.2029 40  1    1.1090 40  2    1.9014 40  3    3.1358
 41  1    1.1102 41  2    1.9270 41  3    1.0573 42  1    1.1110 42  2    1.9222
 42  3    5.2086 43  1    1.1099 43  2    1.9308 43  3    5.1918 44  1    1.1090
 44  2    1.9015 44  3    3.1115 45  1    1.1115 45  2    1.9196 45  3    1.0413
 46  1    1.1089 46  2    1.8996 46  3    3.0771 47  1    1.1096 47  2    1.9320
 47  3    1.0056 48  1    1.1113 48  2    1.9212 48  3    5.1430
 grad
       0.00001    0.00001   -0.00000   24.00880    0.00000    0.00000   61.10231  176.76857
       0.00000   28.50958  147.82112   -9.59463   -6.05783  -16.07694    0.91188   31.21755
     610.32634 -480.26912  -27.48106  -50.27227   -1.88152  -61.01953    4.83468    2.21117
      -5.67558 -101.95826   -2.89229   10.80064  -26.07312   -3.09821  -17.70569   91.63912
      -1.40534 -122.17366  620.33158 -473.11425  -14.79240  -96.47297   -0.32134   11.80936
     -36.16759   -1.54764   -8.83610   47.88614   -1.46467   -6.41012  -95.79908   -0.21873
     -40.73634 -103.51868    1.28749   12.61430  -21.08083   -0.24771  -36.13082  -24.32414
      -0.58189    1.90425    3.17208   -0.86222    5.50463  -19.16015    0.29441  -21.98873
      -5.05770    0.77454    2.28834   92.84713   -1.87311   39.33237   33.50601   -3.73912
     -30.21120  -52.34609    0.14064  -21.95562   26.44825   -0.11257  -20.56771   24.83758
       0.98472  -21.27372   30.29360    1.63681  -13.10560    7.45804   -2.82052  -22.96871
      22.30255    0.93001   -8.27326   -4.55564    0.10848   -6.18588   -6.34884   -0.02737
     -22.04049   11.12780   -0.40544    0.46887   -2.11705    7.32849    1.12280    6.20737
       0.42712    0.31285   -2.06256   -7.65615   -7.67756    1.43608    0.15180    0.66336
       3.29464    5.66414    0.36393    3.32718   -5.69872    7.30016   16.15099    0.14244
       4.96434   -1.13442   -0.18641    5.13752   -1.45084   -0.06054    5.91874   -1.20991
       0.70278    6.91359   15.62760   -0.27249    5.93667   -1.91941   -0.23892    6.67881
      16.38081    0.09901    5.36645   -0.54862    2.03779    6.13906   -1.85263   -2.12960
 CYCLE:     3 TIME:   0.039 TIME LEFT:  2.00D  GRAD.:  1172.055 HEAT:  85.32200

          HESSIAN HAS  0 NEGATIVE EIGENVALUE(S)
  MIN SEARCH, CORRECT HESSIAN, TRYING PURE NR STEP
 LAMBDA THAT MINIMIZES ALONG ALL MODES =        0.000000000
 PURE NR-STEP HAS LENGTH  17.72445
 LAMBDA THAT MINIMIZES ALONG ALL MODES =     -361.359368924
 P-RFO-STEP   HAS LENGTH   0.93807
 LAMBDA THAT MINIMIZES ALONG ALL MODES =   -89556.897876037
 QA/TRIM-STEP HAS LENGTH   0.00442

  HEAT OF FORMATION        83.884428077319171    
 PARAMETERS        0.000  -0.001  -0.000   2.225   0.000  -0.000   4.816   1.639
   0.000   9.137   1.790   6.273   2.843   1.288   3.273   4.270   2.189   0.005

   1.402   2.123   0.037   1.463   2.051   6.265   1.448   2.109   6.267   1.417

   2.039   0.035   1.477   2.171   3.108   4.568   0.548   6.282   1.339   1.239

   0.004   1.423   2.076   3.191   1.357   0.503   6.251   1.411   2.068   3.111

   1.336   1.232   6.279   1.368   2.142   6.275   1.376   2.239   3.137   1.430

   2.215   0.046   1.472   1.958   3.159   1.403   2.133   3.106   1.362   0.248

   3.379   1.362   0.990   0.011   1.391   0.646   3.144   1.381   1.722   3.076

   1.380   1.972   0.216   1.379   1.249   3.057   1.086   2.103   5.601   1.063

   2.192   3.158   1.086   2.062   3.159   1.081   2.066   6.276   1.047   2.163

   0.031   1.110   1.918   4.247   1.112   1.992   6.280   1.110   1.917   2.022

   1.085   2.098   3.161   1.111   1.922   2.080   1.110   1.922   4.203   1.109

   1.901   3.136   1.110   1.927   1.057   1.111   1.922   5.209   1.110   1.931

   5.192   1.109   1.901   3.111   1.111   1.920   1.041   1.109   1.899   3.077

   1.109   1.932   1.006   1.111   1.921   5.143
 GRADIENT          0.000   0.000  -0.000-159.325   0.000   0.000  49.620  48.255
   0.000  32.115  65.839   3.025  -9.078 -10.214   0.516  27.022-135.255 231.951

 -15.467 -95.434   3.371 -40.818  -7.522   8.910  -0.889 -84.191   3.894   9.013

 -18.338   0.131  -8.528 108.811  -5.047 -32.866-287.293 227.113 -14.895 -85.468

  -0.719  11.845 -41.611  -1.394  -4.966  50.533  -1.067  -2.925 -69.285  -0.118

 -39.759 -94.405   1.023   7.477  -9.091  -0.370 -33.496 -24.976  -0.444   3.077

  14.398  -1.505   5.236 -18.567   0.444 -22.948   4.531   0.041   1.739  80.691

  -1.596  37.245  26.008  -4.134 -29.587 -49.474   0.169 -21.960  26.135  -0.088

 -20.681  24.873   0.967 -21.248  30.159   1.560 -13.161   7.421   1.946 -22.865

  22.155   0.926  -7.684  -5.259   0.125  -5.978  -6.656  -0.004 -22.847  12.094

  -0.274   0.399  -2.145   7.329   1.059   6.166   0.296   0.244  -2.054  -7.559

  -6.923   0.742  -0.004   0.738   3.260   5.760   0.426   3.290  -5.808   7.224

  16.066   0.137   4.917  -1.144  -0.200   5.082  -1.470  -0.044   5.863  -1.233

   0.703   6.841  15.564  -0.274   5.878  -1.941  -0.243   6.605  16.305   0.100

   5.305  -0.542   2.037   6.083  -1.834  -2.129
       HoF         ACTUAL,  PREDICTED ENERGY CHANGE, RATIO
    83.8844281    -1.4375671          -1.8302124    0.7854646
     STEPSIZE USED IS  0.00442
 CALCULATED STEP
     0.000175 -0.000153 -0.000179  0.001404  0.000316 -0.000190 -0.000863 -0.000993
    -0.000070 -0.000515 -0.000364  0.000021 -0.000003  0.000331 -0.000098 -0.000601
    -0.000728  0.000823  0.000076  0.000802 -0.000023  0.000537 -0.000414 -0.000089
    -0.000137  0.000864 -0.000021 -0.000346  0.000430 -0.000001  0.000006 -0.001260
     0.000014  0.000730  0.000885  0.000638  0.000089  0.001207 -0.000069 -0.000367
     0.000403  0.000005  0.000190 -0.000857 -0.000110 -0.000128  0.001061 -0.000014
     0.000407  0.000844 -0.000088 -0.000371 -0.000049 -0.000008  0.000164  0.000167
     0.000003 -0.000272  0.000098  0.000004 -0.000254  0.000129 -0.000028  0.000035
    -0.000066 -0.000019  0.000099 -0.001167 -0.000122 -0.000460 -0.000237 -0.000049
     0.000385  0.000489 -0.000117  0.000095 -0.000392 -0.000039  0.000022 -0.000173
    -0.000033  0.000174 -0.000434 -0.000091  0.000087 -0.000179 -0.000002  0.000188
    -0.000295 -0.000012  0.000033  0.000003 -0.000006  0.000012 -0.000039 -0.000004
     0.000175 -0.000108  0.000002 -0.000058 -0.000042 -0.000089 -0.000066 -0.000177
    -0.000009 -0.000058  0.000002  0.000078  0.000021 -0.000060 -0.000005 -0.000062
    -0.000059 -0.000070 -0.000056 -0.000102  0.000056 -0.000134 -0.000224 -0.000009
    -0.000112  0.000011 -0.000005 -0.000109 -0.000070 -0.000006 -0.000118 -0.000072
    -0.000015 -0.000130 -0.000217 -0.000004 -0.000122  0.000021 -0.000004 -0.000127
    -0.000225 -0.000009 -0.000117  0.000006 -0.000030 -0.000120 -0.000064  0.000017
     NEW TRUST RADIUS =  0.00625
*REMARK   3 HET = Not identified; C 22 H 20 N O 5    =    48 atoms res:    1
 PM7 CHARGE=+1 EF NOXYZ PRNT=2 PDBOUT COMPFG GRAPHF
 3,16,17-trimethoxy-12-methyl-6,8-dioxa-12-azoniapentacyclo[11.8.0.02,10.05,9.014,19]henicosa-1(13),2,4,9,11,14,16,18,20-nonaene

  O(HETATM    1  O1  HET A   1)   0.00043111 +1   -0.0005013 +1   -0.0002969 +1
  O(HETATM    2  O2  HET A   1)   2.22513530 +1    0.0285359 +1   -0.0140346 +1     1     0     0
  O(HETATM    3  O3  HET A   1)   4.81646385 +1   93.9194569 +1    0.0021392 +1     2     1     0
  O(HETATM    4  O4  HET A   1)   9.13736420 +1  102.5775505 +1   -0.5567242 +1     3     2     1
  O(HETATM    5  O5  HET A   1)   2.84291213 +1   73.8177672 +1 -172.4989327 +1     4     3     2
  N(HETATM    6  N   HET A   1)   4.27023102 +1  125.3995103 +1    0.3079489 +1     1     2     3
  C(HETATM    7  C1  HET A   1)   1.40180208 +1  121.6109330 +1    2.1195886 +1     6     1     2
  C(HETATM    8  C2  HET A   1)   1.46308049 +1  117.5117920 +1   -1.0409082 +1     7     6     1
  C(HETATM    9  C3  HET A   1)   1.44849913 +1  120.8122791 +1   -0.9117876 +1     8     7     6
  C(HETATM   10  C4  HET A   1)   1.41651753 +1  116.8169094 +1    1.9775206 +1     9     8     7
  C(HETATM   11  C5  HET A   1)   1.47687308 +1  124.3870940 +1  178.0631997 +1     7     6     1
  C(HETATM   12  C6  HET A   1)   4.56803592 +1   31.3707502 +1   -0.0620890 +1     2     1     3
  C(HETATM   13  C7  HET A   1)   1.33914003 +1   71.0122639 +1    0.2553648 +1     1     2     3
  C(HETATM   14  C8  HET A   1)   1.42278609 +1  118.9657883 +1 -177.1781388 +1    11     7     6
  C(HETATM   15  C9  HET A   1)   1.35650669 +1   28.8034236 +1   -1.8347256 +1     3     2     1
  C(HETATM   16  C10 HET A   1)   1.41117541 +1  118.5110632 +1  178.2492423 +1     8     7     6
  C(HETATM   17  C11 HET A   1)   1.33647528 +1   70.5682892 +1   -0.2342569 +1     2     1     3
  C(HETATM   18  C12 HET A   1)   1.36800606 +1  122.7470079 +1   -0.4927232 +1    16     8     7
  C(HETATM   19  C13 HET A   1)   1.37612710 +1  128.3078203 +1  179.7210531 +1    17     2     1
  C(HETATM   20  C14 HET A   1)   1.42974037 +1  126.8867937 +1    2.6482040 +1    11     7     6
  C(HETATM   21  C15 HET A   1)   1.47229495 +1  112.2098090 +1 -178.9967178 +1     6     1     2
  C(HETATM   22  C16 HET A   1)   1.40312657 +1  122.2342526 +1  177.9472720 +1    14    11     7
  C(HETATM   23  C17 HET A   1)   1.36184969 +1   14.2242400 +1 -166.4089904 +1     4     3     2
  C(HETATM   24  C18 HET A   1)   1.36189220 +1   56.7321589 +1    0.6478866 +1     5     4     3
  C(HETATM   25  C19 HET A   1)   1.39056090 +1   37.0172191 +1 -179.8371373 +1     2     1     3
  C(HETATM   26  C20 HET A   1)   1.38099117 +1   98.6723714 +1  176.2613512 +1     3     2     1
  C(HETATM   27  C21 HET A   1)   1.38037535 +1  112.9741113 +1   12.3915657 +1     4     3     2
  C(HETATM   28  C22 HET A   1)   1.37945413 +1   71.5713217 +1  175.1515362 +1     5     4     3
  H(HETATM   29  H6  HET A   1)   1.08632530 +1  120.4872038 +1  -39.0727549 +1    12     6     1
  H(HETATM   30  H10 HET A   1)   1.06349739 +1  125.5898770 +1 -179.0465868 +1    16     8     7
  H(HETATM   31  H12 HET A   1)   1.08606020 +1  118.1377585 +1 -179.0275505 +1    18    16     8
  H(HETATM   32  H13 HET A   1)   1.08106864 +1  118.3922083 +1   -0.4381672 +1    19    17     2
  H(HETATM   33  H14 HET A   1)   1.04724141 +1  123.9515106 +1    1.7498187 +1    20    11     7
  H(HETATM   34 1H15 HET A   1)   1.11041383 +1  109.8885998 +1 -116.6597535 +1    21     6     1
  H(HETATM   35 2H15 HET A   1)   1.11209890 +1  114.1548871 +1   -0.1716119 +1    21     6     1
  H(HETATM   36 3H15 HET A   1)   1.11003105 +1  109.8417561 +1  115.8798433 +1    21     6     1
  H(HETATM   37  H16 HET A   1)   1.08536285 +1  120.2254838 +1 -178.8946191 +1    22    14    11
  H(HETATM   38 1H19 HET A   1)   1.11091418 +1  110.1136546 +1  119.1468237 +1    25     2     1
  H(HETATM   39 2H19 HET A   1)   1.11016408 +1  110.1287707 +1 -119.1865932 +1    25     2     1
  H(HETATM   40 1H20 HET A   1)   1.10884277 +1  108.9280785 +1  179.6655072 +1    26     3     2
  H(HETATM   41 2H20 HET A   1)   1.11009565 +1  110.4089574 +1   60.5802400 +1    26     3     2
  H(HETATM   42 3H20 HET A   1)   1.11086744 +1  110.1293835 +1  -61.5690654 +1    26     3     2
  H(HETATM   43 1H21 HET A   1)   1.10978735 +1  110.6234437 +1  -62.5328392 +1    27     4     3
  H(HETATM   44 2H21 HET A   1)   1.10891943 +1  108.9380092 +1  178.2728373 +1    27     4     3
  H(HETATM   45 3H21 HET A   1)   1.11133792 +1  109.9845908 +1   59.6596639 +1    27     4     3
  H(HETATM   46 1H22 HET A   1)   1.10876772 +1  108.8264087 +1  176.3042962 +1    28     5     4
  H(HETATM   47 2H22 HET A   1)   1.10945472 +1  110.6944260 +1   57.6145278 +1    28     5     4
  H(HETATM   48 3H22 HET A   1)   1.11117642 +1  110.0752797 +1  -65.3276404 +1    28     5     4

 XPARAM 
  1  1    0.0004  1  2   -0.0005  1  3   -0.0003  2  1    2.2251  2  2    0.0005
  2  3   -0.0002  3  1    4.8165  3  2    1.6392  3  3    0.0000  4  1    9.1374
  4  2    1.7903  4  3    6.2735  5  1    2.8429  5  2    1.2884  5  3    3.2725
  6  1    4.2702  6  2    2.1886  6  3    0.0054  7  1    1.4018  7  2    2.1225
  7  3    0.0370  8  1    1.4631  8  2    2.0510  8  3    6.2650  9  1    1.4485
  9  2    2.1086  9  3    6.2673 10  1    1.4165 10  2    2.0388 10  3    0.0345
 11  1    1.4769 11  2    2.1710 11  3    3.1078 12  1    4.5680 12  2    0.5475
 12  3    6.2821 13  1    1.3391 13  2    1.2394 13  3    0.0045 14  1    1.4228
 14  2    2.0763 14  3    3.1908 15  1    1.3565 15  2    0.5027 15  3    6.2512
 16  1    1.4112 16  2    2.0684 16  3    3.1110 17  1    1.3365 17  2    1.2316
 17  3    6.2791 18  1    1.3680 18  2    2.1423 18  3    6.2746 19  1    1.3761
 19  2    2.2394 19  3    3.1367 20  1    1.4297 20  2    2.2146 20  3    0.0462
 21  1    1.4723 21  2    1.9584 21  3    3.1591 22  1    1.4031 22  2    2.1334
 22  3    3.1058 23  1    1.3618 23  2    0.2483 23  3    3.3788 24  1    1.3619
 24  2    0.9902 24  3    0.0113 25  1    1.3906 25  2    0.6461 25  3    3.1444
 26  1    1.3810 26  2    1.7222 26  3    3.0763 27  1    1.3804 27  2    1.9718
 27  3    0.2163 28  1    1.3795 28  2    1.2492 28  3    3.0570 29  1    1.0863
 29  2    2.1029 29  3    5.6012 30  1    1.0635 30  2    2.1920 30  3    3.1582
 31  1    1.0861 31  2    2.0619 31  3    3.1586 32  1    1.0811 32  2    2.0663
 32  3    6.2755 33  1    1.0472 33  2    2.1634 33  3    0.0305 34  1    1.1104
 34  2    1.9179 34  3    4.2471 35  1    1.1121 35  2    1.9924 35  3    6.2802
 36  1    1.1100 36  2    1.9171 36  3    2.0225 37  1    1.0854 37  2    2.0983
 37  3    3.1609 38  1    1.1109 38  2    1.9218 38  3    2.0795 39  1    1.1102
 39  2    1.9221 39  3    4.2030 40  1    1.1088 40  2    1.9012 40  3    3.1358
 41  1    1.1101 41  2    1.9270 41  3    1.0573 42  1    1.1109 42  2    1.9221
 42  3    5.2086 43  1    1.1098 43  2    1.9307 43  3    5.1918 44  1    1.1089
 44  2    1.9013 44  3    3.1114 45  1    1.1113 45  2    1.9196 45  3    1.0413
 46  1    1.1088 46  2    1.8994 46  3    3.0771 47  1    1.1095 47  2    1.9320
 47  3    1.0056 48  1    1.1112 48  2    1.9212 48  3    5.1430
 grad
       0.00001    0.00001   -0.00000 -159.32516    0.00000    0.00000   49.62035   48.25501
       0.00000   32.11528   65.83908    3.02500   -9.07815  -10.21418    0.51580   27.02167
    -135.25513  231.95071  -15.46720  -95.43418    3.37055  -40.81750   -7.52210    8.90964
      -0.88947  -84.19095    3.89372    9.01294  -18.33799    0.13055   -8.52789  108.81134
      -5.04729  -32.86579 -287.29290  227.11350  -14.89493  -85.46762   -0.71877   11.84451
     -41.61121   -1.39439   -4.96613   50.53336   -1.06703   -2.92477  -69.28488   -0.11793
     -39.75874  -94.40460    1.02287    7.47702   -9.09119   -0.36996  -33.49646  -24.97602
      -0.44391    3.07703   14.39812   -1.50498    5.23647  -18.56680    0.44443  -22.94828
       4.53119    0.04052    1.73933   80.69106   -1.59626   37.24536   26.00820   -4.13364
     -29.58719  -49.47408    0.16893  -21.95955   26.13542   -0.08791  -20.68149   24.87321
       0.96719  -21.24818   30.15921    1.56040  -13.16056    7.42145    1.94582  -22.86491
      22.15511    0.92615   -7.68438   -5.25927    0.12496   -5.97806   -6.65592   -0.00384
     -22.84726   12.09428   -0.27385    0.39877   -2.14460    7.32930    1.05871    6.16584
       0.29643    0.24358   -2.05425   -7.55935   -6.92291    0.74180   -0.00368    0.73840
       3.25991    5.76001    0.42582    3.29010   -5.80758    7.22436   16.06645    0.13691
       4.91689   -1.14352   -0.20023    5.08226   -1.46968   -0.04431    5.86348   -1.23340
       0.70257    6.84112   15.56389   -0.27363    5.87753   -1.94056   -0.24302    6.60456
      16.30545    0.10037    5.30543   -0.54185    2.03744    6.08250   -1.83387   -2.12894
 CYCLE:     4 TIME:   0.039 TIME LEFT:  2.00D  GRAD.:   568.926 HEAT:  83.88443

          HESSIAN HAS  0 NEGATIVE EIGENVALUE(S)
  MIN SEARCH, CORRECT HESSIAN, TRYING PURE NR STEP
 LAMBDA THAT MINIMIZES ALONG ALL MODES =        0.000000000
 PURE NR-STEP HAS LENGTH  12.07021
 LAMBDA THAT MINIMIZES ALONG ALL MODES =     -297.269028063
 P-RFO-STEP   HAS LENGTH   0.94589
 LAMBDA THAT MINIMIZES ALONG ALL MODES =   -52539.837345208
 QA/TRIM-STEP HAS LENGTH   0.00625

  HEAT OF FORMATION        82.134708497294923    
 PARAMETERS        0.001  -0.001  -0.000   2.227   0.001  -0.000   4.815   1.638
   0.000   9.136   1.790   6.274   2.843   1.289   3.273   4.269   2.188   0.005

   1.402   2.124   0.037   1.464   2.051   6.265   1.448   2.110   6.267   1.416

   2.039   0.035   1.477   2.169   3.108   4.569   0.548   6.282   1.339   1.241

   0.004   1.422   2.077   3.191   1.357   0.501   6.251   1.411   2.070   3.111

   1.337   1.233   6.279   1.367   2.142   6.275   1.376   2.240   3.137   1.429

   2.214   0.046   1.472   1.959   3.159   1.403   2.133   3.106   1.362   0.247

   3.379   1.361   0.990   0.011   1.391   0.647   3.144   1.381   1.722   3.076

   1.381   1.971   0.216   1.380   1.248   3.057   1.086   2.103   5.601   1.064

   2.191   3.158   1.086   2.062   3.159   1.081   2.066   6.276   1.048   2.163

   0.031   1.110   1.918   4.247   1.112   1.992   6.280   1.110   1.917   2.023

   1.085   2.098   3.161   1.111   1.922   2.079   1.110   1.922   4.203   1.109

   1.901   3.136   1.110   1.927   1.057   1.111   1.922   5.209   1.110   1.931

   5.192   1.109   1.901   3.111   1.111   1.920   1.041   1.109   1.899   3.077

   1.109   1.932   1.006   1.111   1.921   5.143
 GRADIENT          0.000   0.000  -0.000 -20.842   0.000   0.000  38.695  25.678
   0.000  25.090  35.203   4.255  -6.694 -15.657   0.686  29.261 317.016-284.190

  -4.661 -66.277  -1.585 -12.009  -8.943   0.610   4.433 -51.524  -2.544   3.474

  -4.594  -2.246   7.004  71.878  -3.941 -92.539 376.654-288.742 -16.349 -69.989

  -0.499   5.846 -15.747  -0.693  -0.164  51.539  -1.127   1.561 -35.542  -0.383

 -38.242 -80.956   1.059   0.666   6.191  -0.539 -29.449 -25.463  -0.472   4.158

  22.003  -1.687   4.731 -17.816   0.318 -19.208   0.157   0.242   2.746  70.517

  -1.267  37.739  29.842  -3.874 -28.647 -44.873   0.139 -21.948  25.666  -0.134

 -20.692  24.704   0.961 -21.167  29.888   1.537 -12.645   6.810  -2.207 -22.671

  22.010   0.919  -6.925  -6.166   0.116  -5.731  -6.977  -0.029 -23.126  12.416

  -0.339   0.282  -2.160   7.197   0.958   6.066   0.430   0.143  -2.104  -7.526

  -6.892   0.841   0.047   0.851   3.204   5.929   0.545   3.234  -5.962   7.103

  15.940   0.138   4.845  -1.156  -0.224   5.000  -1.480  -0.024   5.767  -1.248

   0.709   6.729  15.476  -0.272   5.804  -1.952  -0.254   6.492  16.200   0.100

   5.232  -0.524   2.026   5.983  -1.823  -2.120
       HoF         ACTUAL,  PREDICTED ENERGY CHANGE, RATIO
    82.1347085    -1.7497196          -2.0927496    0.8360864
     STEPSIZE USED IS  0.00625
 CALCULATED STEP
     0.000198 -0.000208 -0.000137  0.002145  0.000252 -0.000073 -0.001137 -0.000787
     0.000116 -0.000945 -0.000424  0.000259 -0.000006  0.000374  0.000023 -0.000767
    -0.001038 -0.000280  0.000147  0.001649  0.000011  0.000537 -0.000221 -0.000089
[...]
    124         42  H    BOND            1.097184      0.825613  KCAL/ANGSTROM
    125         42  H    ANGLE         111.956216      2.237202  KCAL/RADIAN  
    126         42  H    DIHEDRAL      297.148788      0.342498  KCAL/RADIAN  
    127         43  H    BOND            1.095259      0.813030  KCAL/ANGSTROM
    128         43  H    ANGLE         112.107706      2.394964  KCAL/RADIAN  
    129         43  H    DIHEDRAL      295.899498      0.504734  KCAL/RADIAN  
    130         44  H    BOND            1.102825      0.640548  KCAL/ANGSTROM
    131         44  H    ANGLE         102.625577      2.683933  KCAL/RADIAN  
    132         44  H    DIHEDRAL      178.405745      0.115872  KCAL/RADIAN  
    133         45  H    BOND            1.095890      0.459426  KCAL/ANGSTROM
    134         45  H    ANGLE         111.332199      1.114981  KCAL/RADIAN  
    135         45  H    DIHEDRAL       61.007161     -0.602004  KCAL/RADIAN  
    136         46  H    BOND            1.101766      0.620874  KCAL/ANGSTROM
    137         46  H    ANGLE         102.401828      2.540148  KCAL/RADIAN  
    138         46  H    DIHEDRAL      176.263583     -0.008351  KCAL/RADIAN  
    139         47  H    BOND            1.097110      0.502155  KCAL/ANGSTROM
    140         47  H    ANGLE         111.201357      1.319553  KCAL/RADIAN  
    141         47  H    DIHEDRAL       58.454669     -0.834851  KCAL/RADIAN  
    142         48  H    BOND            1.096361      0.901777  KCAL/ANGSTROM
    143         48  H    ANGLE         112.040049      2.213460  KCAL/RADIAN  
    144         48  H    DIHEDRAL      294.414166      0.265936  KCAL/RADIAN  




  ATOM               CHEMICAL                 BOND LENGTH      BOND ANGLE     TWIST ANGLE 
 NUMBER               SYMBOL                  (ANGSTROMS)      (DEGREES)       (DEGREES) 
   (I)                                           NA:I           NB:NA:I       NC:NB:NA:I       NA    NB    NC 
     1       O(HETATM    1  O1  HET A   1)   -0.12850777  *    0.2383289  *    0.0545990  *
     2       O(HETATM    2  O2  HET A   1)    2.33922313  *    4.3064188  *    1.1426838  *     1     0     0
     3       O(HETATM    3  O3  HET A   1)    4.85945228  *   91.5115735  *   -2.9181548  *     2     1     0
     4       O(HETATM    4  O4  HET A   1)    8.97743228  *  104.7994014  *   -2.4138613  *     3     2     1
     5       O(HETATM    5  O5  HET A   1)    2.80488233  *   73.6624138  * -172.3822982  *     4     3     2
     6       N(HETATM    6  N   HET A   1)    4.23026874  *  125.2540723  *    1.4072076  *     1     2     3
     7       C(HETATM    7  C1  HET A   1)    1.41244161  *  121.7976599  *    1.8045687  *     6     1     2
     8       C(HETATM    8  C2  HET A   1)    1.42656281  *  116.9670351  *   -2.2615883  *     7     6     1
     9       C(HETATM    9  C3  HET A   1)    1.44831175  *  123.2182591  *   -0.6728799  *     8     7     6
    10       C(HETATM   10  C4  HET A   1)    1.42517852  *  114.9885056  *    2.4681140  *     9     8     7
    11       C(HETATM   11  C5  HET A   1)    1.45503467  *  124.2199473  *  176.8832932  *     7     6     1
    12       C(HETATM   12  C6  HET A   1)    4.65887292  *   30.6723648  *   -1.2167692  *     2     1     3
    13       C(HETATM   13  C7  HET A   1)    1.36785858  *   69.0211539  *    0.5646410  *     1     2     3
    14       C(HETATM   14  C8  HET A   1)    1.41671140  *  119.7822811  * -176.6137843  *    11     7     6
    15       C(HETATM   15  C9  HET A   1)    1.34535045  *   26.5062197  *   -0.8026733  *     3     2     1
    16       C(HETATM   16  C10 HET A   1)    1.41811187  *  118.6578315  *  178.0191306  *     8     7     6
    17       C(HETATM   17  C11 HET A   1)    1.35918903  *   71.0172223  *   -0.0057346  *     2     1     3
    18       C(HETATM   18  C12 HET A   1)    1.36348790  *  123.2397786  *   -0.6084170  *    16     8     7
    19       C(HETATM   19  C13 HET A   1)    1.37617678  *  130.9048699  *  178.9079283  *    17     2     1
    20       C(HETATM   20  C14 HET A   1)    1.42734362  *  126.4441715  *    3.2683980  *    11     7     6
    21       C(HETATM   21  C15 HET A   1)    1.46414965  *  114.7131258  *  179.6482827  *     6     1     2
    22       C(HETATM   22  C16 HET A   1)    1.41687874  *  123.6905860  *  177.4361797  *    14    11     7
    23       C(HETATM   23  C17 HET A   1)    1.35528359  *   11.1860256  * -165.1823188  *     4     3     2
    24       C(HETATM   24  C18 HET A   1)    1.34607913  *   55.7685049  *    2.2280444  *     5     4     3
    25       C(HETATM   25  C19 HET A   1)    1.44255458  *   36.1670111  * -179.0106335  *     2     1     3
    26       C(HETATM   26  C20 HET A   1)    1.42125535  *   94.8207936  *  176.4161034  *     3     2     1
    27       C(HETATM   27  C21 HET A   1)    1.41820290  *  108.3108630  *   11.3520365  *     4     3     2
    28       C(HETATM   28  C22 HET A   1)    1.41968012  *   65.1274854  *  174.8649038  *     5     4     3
    29       H(HETATM   29  H6  HET A   1)    1.11064357  *  120.4973161  *  -39.4236582  *    12     6     1
    30       H(HETATM   30  H10 HET A   1)    1.09617086  *  120.3445132  * -179.6123248  *    16     8     7
    31       H(HETATM   31  H12 HET A   1)    1.09460063  *  121.7617074  * -179.2365610  *    18    16     8
    32       H(HETATM   32  H13 HET A   1)    1.09122862  *  121.5463687  *   -0.6604110  *    19    17     2
    33       H(HETATM   33  H14 HET A   1)    1.07886086  *  121.7944366  *    3.2192223  *    20    11     7
    34       H(HETATM   34 1H15 HET A   1)    1.11329351  *  111.6372638  * -118.9091766  *    21     6     1
    35       H(HETATM   35 2H15 HET A   1)    1.11109399  *  113.2643512  *   -0.3229311  *    21     6     1
    36       H(HETATM   36 3H15 HET A   1)    1.11288641  *  111.2525717  *  118.3096664  *    21     6     1
    37       H(HETATM   37  H16 HET A   1)    1.09375208  *  120.6680979  * -179.2203291  *    22    14    11
    38       H(HETATM   38 1H19 HET A   1)    1.10176963  *  108.6884059  *  116.2392247  *    25     2     1
    39       H(HETATM   39 2H19 HET A   1)    1.10172972  *  109.0671700  * -116.2482842  *    25     2     1
    40       H(HETATM   40 1H20 HET A   1)    1.10220489  *  102.0595587  *  179.6640743  *    26     3     2
    41       H(HETATM   41 2H20 HET A   1)    1.09694197  *  111.3514948  *   62.1635035  *    26     3     2
    42       H(HETATM   42 3H20 HET A   1)    1.09718393  *  111.9562156  *  -62.8512117  *    26     3     2
    43       H(HETATM   43 1H21 HET A   1)    1.09525851  *  112.1077061  *  -64.1005023  *    27     4     3
    44       H(HETATM   44 2H21 HET A   1)    1.10282495  *  102.6255766  *  178.4057448  *    27     4     3
    45       H(HETATM   45 3H21 HET A   1)    1.09588993  *  111.3321994  *   61.0071615  *    27     4     3
    46       H(HETATM   46 1H22 HET A   1)    1.10176591  *  102.4018276  *  176.2635830  *    28     5     4
    47       H(HETATM   47 2H22 HET A   1)    1.09710988  *  111.2013570  *   58.4546687  *    28     5     4
    48       H(HETATM   48 3H22 HET A   1)    1.09636056  *  112.0400488  *  -65.5858344  *    28     5     4

                             CARTESIAN COORDINATES

   1    O       -0.128507775     0.238328897     0.054599041
   2    O        2.210715356     0.238328897     0.054599041
   3    O        2.338902234     5.096090173     0.054599041
   4    O       -6.269502981     7.617203822    -0.310963493
   5    O       -4.749242116     9.955740908    -0.606625604
   6    N       -2.570232561     3.691726773    -0.030234868
   7    C       -2.020007965     4.990719726    -0.099959336
   8    C       -0.597068403     5.091905158    -0.090687360
   9    C        0.279521449     3.942552334    -0.000215097
  10    C       -0.382687986     2.680810205     0.024670000
  11    C       -2.808959223     6.209412975    -0.197265918
  12    C       -1.796373879     2.614415124     0.004131392
  13    C        0.361217391     1.515453774     0.042012766
  14    C       -2.157835845     7.460152573    -0.334233024
  15    C        1.706988493     3.908410883     0.046187814
  16    C       -0.005831253     6.376056571    -0.202199895
  17    C        1.768593005     1.523600322     0.054470403
  18    C       -0.730466774     7.523900974    -0.330480274
  19    C        2.458838450     2.713993324     0.074174841
  20    C       -4.233093066     6.301784211    -0.172362790
  21    C       -4.009653374     3.423772660    -0.031819583
  22    C       -2.843488158     8.690476159    -0.488278940
  23    C       -4.920459890     7.487704371    -0.321270215
  24    C       -4.224930887     8.721644560    -0.488164847
  25    C        1.046140712    -0.612854721     0.039899595
  26    C        3.755018997     5.178204744     0.143127446
  27    C       -7.078344615     6.475693210    -0.078523828
  28    C       -6.150403362    10.132038009    -0.752083948
  29    H       -2.245015547     1.599123258     0.041976030
  30    H        1.084886586     6.485235561    -0.204458196
  31    H       -0.248392040     8.501863811    -0.427140345
  32    H        3.549299985     2.741208202     0.104718157
  33    H       -4.856478284     5.433965586    -0.023290823
  34    H       -4.500204352     3.821315912    -0.948739171
  35    H       -4.254327343     2.340068405    -0.016021138
  36    H       -4.500803029     3.852597634     0.870065838
  37    H       -2.290175370     9.626975615    -0.602766238
  38    H        1.033448677    -1.177455424    -0.906124332
  39    H        1.027358010    -1.213068753     0.963587149
  40    H        3.922821028     6.267558891     0.145501877
  41    H        4.236872531     4.723526699    -0.731153246
  42    H        4.133915467     4.739839891     1.074838936
  43    H       -6.962151537     5.721304933    -0.864010116
  44    H       -8.098911040     6.892107179    -0.114110908
  45    H       -6.886880885     6.046312145     0.911399540
  46    H       -6.239348269    11.222342005    -0.883286506
  47    H       -6.686338953     9.812046578     0.150151389
  48    H       -6.541421142     9.610181124    -1.633433457


           Empirical Formula: C22 H20 N O5  =    48 atoms



      MOLECULAR POINT GROUP   :   C1  


                  EIGENVALUES  
 -41.73353 -35.56756 -34.44686 -34.10299 -33.66926 -33.56423 -33.02639 -32.61834
 -32.30172 -31.01855 -30.15965 -29.51614 -29.26464 -28.30357 -27.95648 -27.66890
 -27.46634 -26.85232 -26.70785 -26.04918 -25.32260 -24.98058 -23.96140 -23.71954
 -22.58129 -21.77190 -21.63446 -20.97452 -20.70907 -20.43194 -20.38920 -20.16984
 -20.03004 -19.80883 -19.51385 -18.92848 -18.91162 -18.73219 -18.70685 -18.42019
 -18.05776 -17.95383 -17.91763 -17.74415 -17.68016 -17.62269 -17.17890 -16.94390
 -16.89221 -16.84185 -16.70929 -16.56561 -16.41168 -16.07338 -15.90277 -15.79972
 -15.70903 -15.69144 -15.43087 -15.26408 -15.19422 -14.68883 -14.63907 -14.41667
 -14.36698 -13.69380 -13.52531 -12.95767 -11.92191 -11.58839 -11.02356  -4.88000
  -4.20289  -3.18813  -2.83343  -2.72152  -2.55563  -2.21707  -2.02551  -1.60760
  -1.36302  -1.31236  -1.22819  -0.88600  -0.59497  -0.57683  -0.22605  -0.21091
   0.17322   0.19394   0.36071   0.59745   0.66887   0.71851   0.89745   0.93586
   1.07869   1.14283   1.21330   1.25116   1.30108   1.41610   1.45979   1.53470
   1.58959   1.61460   1.65019   1.72467   1.86677   1.92884   1.97822   2.06760
   2.16439   2.23306   2.28769   2.48456   2.56907   2.60327   2.60696   2.64084
   2.68848   2.84106   2.85171   2.96558   3.10510   3.26966   3.30944   3.35321
   3.37156   3.45175   3.58136   3.95400


              NET ATOMIC CHARGES AND DIPOLE CONTRIBUTIONS

  ATOM NO.                 TYPE                        CHARGE      No. of ELECS.   s-Pop       p-Pop       
    1          O(HETATM    1  O1  HET A   1)          -0.332731        6.3327     1.88009     4.45264
    2          O(HETATM    2  O2  HET A   1)          -0.299279        6.2993     1.87500     4.42428
    3          O(HETATM    3  O3  HET A   1)          -0.305643        6.3056     1.85517     4.45047
    4          O(HETATM    4  O4  HET A   1)          -0.293617        6.2936     1.86419     4.42943
    5          O(HETATM    5  O5  HET A   1)          -0.273011        6.2730     1.85963     4.41338
    6          N(HETATM    6  N   HET A   1)          -0.015391        5.0154     1.49448     3.52091
    7          C(HETATM    7  C1  HET A   1)           0.018507        3.9815     1.05972     2.92177
    8          C(HETATM    8  C2  HET A   1)           0.075901        3.9241     1.06878     2.85532
    9          C(HETATM    9  C3  HET A   1)          -0.105819        4.1058     1.05539     3.05043
   10          C(HETATM   10  C4  HET A   1)          -0.074680        4.0747     1.04292     3.03176
   11          C(HETATM   11  C5  HET A   1)           0.005329        3.9947     1.05263     2.94204
   12          C(HETATM   12  C6  HET A   1)           0.043279        3.9567     1.09982     2.85691
   13          C(HETATM   13  C7  HET A   1)           0.061820        3.9382     1.07044     2.86774
   14          C(HETATM   14  C8  HET A   1)          -0.002153        4.0022     1.06047     2.94168
   15          C(HETATM   15  C9  HET A   1)           0.292804        3.7072     1.08790     2.61930
   16          C(HETATM   16  C10 HET A   1)          -0.194476        4.1945     1.08180     3.11268
   17          C(HETATM   17  C11 HET A   1)           0.227421        3.7726     1.07899     2.69359
   18          C(HETATM   18  C12 HET A   1)          -0.060577        4.0606     1.09868     2.96189
   19          C(HETATM   19  C13 HET A   1)          -0.299681        4.2997     1.07362     3.22606
   20          C(HETATM   20  C14 HET A   1)          -0.319684        4.3197     1.06845     3.25123
   21          C(HETATM   21  C15 HET A   1)          -0.311008        4.3110     1.07187     3.23914
   22          C(HETATM   22  C16 HET A   1)          -0.223420        4.2234     1.07978     3.14364
   23          C(HETATM   23  C17 HET A   1)           0.186587        3.8134     1.08824     2.72518
   24          C(HETATM   24  C18 HET A   1)           0.198802        3.8012     1.08339     2.71781
   25          C(HETATM   25  C19 HET A   1)           0.171305        3.8287     1.14403     2.68466
   26          C(HETATM   26  C20 HET A   1)          -0.189618        4.1896     1.09233     3.09728
   27          C(HETATM   27  C21 HET A   1)          -0.205945        4.2059     1.08776     3.11819
   28          C(HETATM   28  C22 HET A   1)          -0.197132        4.1971     1.09111     3.10602
   29          H(HETATM   29  H6  HET A   1)           0.215499        0.7845     0.78450
   30          H(HETATM   30  H10 HET A   1)           0.196855        0.8031     0.80314
   31          H(HETATM   31  H12 HET A   1)           0.179985        0.8200     0.82002
   32          H(HETATM   32  H13 HET A   1)           0.208448        0.7916     0.79155
   33          H(HETATM   33  H14 HET A   1)           0.162200        0.8378     0.83780
   34          H(HETATM   34 1H15 HET A   1)           0.197823        0.8022     0.80218
   35          H(HETATM   35 2H15 HET A   1)           0.184733        0.8153     0.81527
   36          H(HETATM   36 3H15 HET A   1)           0.195849        0.8042     0.80415
   37          H(HETATM   37  H16 HET A   1)           0.196981        0.8030     0.80302
   38          H(HETATM   38 1H19 HET A   1)           0.158801        0.8412     0.84120
   39          H(HETATM   39 2H19 HET A   1)           0.160187        0.8398     0.83981
   40          H(HETATM   40 1H20 HET A   1)           0.168564        0.8314     0.83144
   41          H(HETATM   41 2H20 HET A   1)           0.147282        0.8527     0.85272
   42          H(HETATM   42 3H20 HET A   1)           0.148116        0.8519     0.85188
   43          H(HETATM   43 1H21 HET A   1)           0.133398        0.8666     0.86660
   44          H(HETATM   44 2H21 HET A   1)           0.172094        0.8279     0.82791
   45          H(HETATM   45 3H21 HET A   1)           0.137116        0.8629     0.86288
   46          H(HETATM   46 1H22 HET A   1)           0.167687        0.8323     0.83231
   47          H(HETATM   47 2H22 HET A   1)           0.146573        0.8534     0.85343
   48          H(HETATM   48 3H22 HET A   1)           0.143915        0.8561     0.85608
 DIPOLE           X         Y         Z       TOTAL
 POINT-CHG.    -1.592    -4.463     0.241     4.745
 HYBRID        -0.670    -0.577     0.068     0.887
 SUM           -2.262    -5.040     0.309     5.533


          ATOMIC ORBITAL ELECTRON POPULATIONS

                   Atom                  s        px        py        pz   
   O(HETATM    1  O1  HET A   1)   1.88009   1.34094   1.20966   1.90204
   O(HETATM    2  O2  HET A   1)   1.87500   1.34026   1.20683   1.87720
   O(HETATM    3  O3  HET A   1)   1.85517   1.28620   1.31864   1.84563
   O(HETATM    4  O4  HET A   1)   1.86419   1.20854   1.36712   1.85376
   O(HETATM    5  O5  HET A   1)   1.85963   1.29398   1.26736   1.85204
   N(HETATM    6  N   HET A   1)   1.49448   1.10952   1.10522   1.30617
   C(HETATM    7  C1  HET A   1)   1.05972   0.95802   0.82596   1.13779
   C(HETATM    8  C2  HET A   1)   1.06878   0.93464   0.98678   0.93391
   C(HETATM    9  C3  HET A   1)   1.05539   0.96756   0.96856   1.11430
   C(HETATM   10  C4  HET A   1)   1.04292   0.96170   0.98376   1.08629
   C(HETATM   11  C5  HET A   1)   1.05263   0.96374   0.94595   1.03235
   C(HETATM   12  C6  HET A   1)   1.09982   0.97445   0.96578   0.91668
   C(HETATM   13  C7  HET A   1)   1.07044   0.95551   0.84365   1.06858
   C(HETATM   14  C8  HET A   1)   1.06047   0.98257   0.96105   0.99807
   C(HETATM   15  C9  HET A   1)   1.08790   0.90051   0.84390   0.87490
   C(HETATM   16  C10 HET A   1)   1.08180   1.11395   0.96175   1.03697
   C(HETATM   17  C11 HET A   1)   1.07899   0.92633   0.84604   0.92122
   C(HETATM   18  C12 HET A   1)   1.09868   0.98909   1.06502   0.90779
   C(HETATM   19  C13 HET A   1)   1.07362   1.11878   0.95842   1.14886
   C(HETATM   20  C14 HET A   1)   1.06845   1.00840   1.07392   1.16891
   C(HETATM   21  C15 HET A   1)   1.07187   0.83096   1.20268   1.20551
   C(HETATM   22  C16 HET A   1)   1.07978   0.99791   1.06027   1.08546
   C(HETATM   23  C17 HET A   1)   1.08824   0.81823   0.97096   0.93598
   C(HETATM   24  C18 HET A   1)   1.08339   0.94365   0.83983   0.93433
   C(HETATM   25  C19 HET A   1)   1.14403   0.67584   0.87325   1.13556
   C(HETATM   26  C20 HET A   1)   1.09233   0.77766   1.16377   1.15586
   C(HETATM   27  C21 HET A   1)   1.08776   1.01875   0.96326   1.13618
   C(HETATM   28  C22 HET A   1)   1.09111   0.80147   1.14723   1.15732
   H(HETATM   29  H6  HET A   1)   0.78450
   H(HETATM   30  H10 HET A   1)   0.80314
   H(HETATM   31  H12 HET A   1)   0.82002
   H(HETATM   32  H13 HET A   1)   0.79155
   H(HETATM   33  H14 HET A   1)   0.83780
   H(HETATM   34 1H15 HET A   1)   0.80218
   H(HETATM   35 2H15 HET A   1)   0.81527
   H(HETATM   36 3H15 HET A   1)   0.80415
   H(HETATM   37  H16 HET A   1)   0.80302
   H(HETATM   38 1H19 HET A   1)   0.84120
   H(HETATM   39 2H19 HET A   1)   0.83981
   H(HETATM   40 1H20 HET A   1)   0.83144
   H(HETATM   41 2H20 HET A   1)   0.85272
   H(HETATM   42 3H20 HET A   1)   0.85188
   H(HETATM   43 1H21 HET A   1)   0.86660
   H(HETATM   44 2H21 HET A   1)   0.82791
   H(HETATM   45 3H21 HET A   1)   0.86288
   H(HETATM   46 1H22 HET A   1)   0.83231
   H(HETATM   47 2H22 HET A   1)   0.85343
   H(HETATM   48 3H22 HET A   1)   0.85608

           DATA FOR GRAPH WRITTEN TO DISK

 **********************
 *                    *
 * JOB ENDED NORMALLY *
 *                    *
 **********************



 TOTAL JOB TIME:             2.21 SECONDS

 == MOPAC DONE ==
