 *******************************************************************************
 **                                                                           **
 **                              MOPAC v22.0.6                                **
 **                                                                           **
 *******************************************************************************
 **          Digital Object Identifier (DOI): 10.5281/zenodo.6511958          **
 **    Visit the DOI location for information on how to cite this program.    **
 *******************************************************************************

                              PM7 CALCULATION RESULTS

 *******************************************************************************
 *  CALCULATION DONE:                                Sun Oct  5 22:55:40 2025  *
 *  PM7        - The PM7 Hamiltonian to be used
 *  PDBOUT     - PRINT GEOMETRY IN PDB FORMAT
 *  RESIDUES   - DETERMINE THE SEQUENCE OF RESIDUES
 *
 *
 *
 *                 CHARGE ON SYSTEM = +1
 *
 *
 *
 *  EF         - USE EF ROUTINE FOR MINIMUM SEARCH
 *  T=         - A TIME OF 172800.0 SECONDS REQUESTED
 *  DUMP=N     - RESTART FILE WRITTEN EVERY 7200.0 SECONDS REQUESTED
 *  NOXYZ      - CARTESIAN COORDINATES NOT TO BE PRINTED
 *  PRNT       - EXTRA PRINTING IN EF ROUTINE
 *  GRAPH      - GENERATE FILE FOR GRAPHICS
 *  COMPFG     - PRINT HEAT OF FORMATION CALC'D IN COMPFG
 *******************************************************************************
PM7 CHARGE=+1 EF NOXYZ PRNT=2 PDBOUT COMPFG GRAPHF
 644020

  ATOM    CHEMICAL      BOND LENGTH      BOND ANGLE     TWIST ANGLE 
 NUMBER    SYMBOL       (ANGSTROMS)      (DEGREES)       (DEGREES) 
   (I)                     NA:I           NB:NA:I       NC:NB:NA:I       NA    NB    NC 
     1       N          0.00000000  *    0.0000000  *    0.0000000  *     0     0     0
     2       N          2.91792700  *    0.0000000  *    0.0000000  *     1     0     0
     3       C          2.53317000  *   55.9177900  *    0.0000000  *     1     2     0
     4       C          2.50073500  *   60.3168050  *  -67.5500010  *     3     1     2
     5       C          1.49631000  *   84.9919420  *   20.6822230  *     1     2     3
     6       C          1.52265400  *   82.1027410  *   93.6649190  *     2     1     3
     7       C          1.54291300  *   88.8253020  *  -90.6335260  *     3     1     2
     8       C          1.48846500  *   84.8157310  *  -93.5821970  *     1     2     3
     9       C          1.51391300  *   83.3101790  *  -18.1409090  *     2     1     3
    10       C          1.55013800  *  110.6967170  *   94.5233890  *     5     1     2
    11       C          1.55236800  *  115.0069980  * -161.1168060  *     6     2     1
    12       C          1.48458000  *  146.6569630  *  145.6911940  *     1     2     3
    13       C          1.51277000  *  151.3529670  * -142.8506510  *     2     1     3
    14       C          1.54065800  *  110.5802090  *   55.8371900  *    10     5     1
    15       C          1.54177900  *  111.1389730  *  -50.6888250  *    11     6     2
    16       C          1.54092100  *  109.8116660  *  -56.2446120  *    14    10     5
    17       C          1.54130400  *  110.6829500  *   56.2081500  *    15    11     6
    18       H          1.09269300  *  141.8191340  *  149.8606870  *     3     1     2
    19       H          1.09274500  *  145.1360080  * -137.7285020  *     4     3     1
    20       H          1.09463600  *  107.7530450  * -148.4136970  *     5     1     2
    21       H          1.09387400  *   97.7249630  *   84.1295930  *     6     2     1
    22       H          1.09319600  *  110.1606860  *  -84.9544510  *     7     3     1
    23       H          1.09197400  *  110.4323290  *  157.1254030  *     7     3     1
    24       H          1.09383300  *  109.4225190  *  -90.7515100  *     8     1     2
    25       H          1.09418400  *  109.0168290  *  151.3526670  *     8     1     2
    26       H          1.09223700  *  108.6541570  *  -96.4253440  *     9     2     1
    27       H          1.09335000  *  106.2744110  *  147.5775870  *     9     2     1
    28       H          1.09203100  *  110.5322160  *  -64.3808930  *    10     5     1
    29       H          1.09259200  *  109.9603430  *  176.9290310  *    10     5     1
    30       H          1.09254600  *  109.8171690  * -171.5417520  *    11     6     2
    31       H          1.09188300  *  110.4416430  *   70.2261650  *    11     6     2
    32       H          1.09411600  *  109.5301150  *  177.9306820  *    12     1     2
    33       H          1.09373200  *  109.5384400  *   59.1652360  *    12     1     2
    34       H          1.09330900  *  113.0466820  *   69.2026940  *    13     2     1
    35       H          1.09360800  *   98.3935490  *  -45.4429680  *    13     2     1
    36       H          1.09244500  *  109.8904950  * -177.2372240  *    14    10     5
    37       H          1.09295200  *  109.7762900  *   64.5489810  *    14    10     5
    38       H          1.09313900  *  109.6247850  *  -64.8837540  *    15    11     6
    39       H          1.09263000  *  109.7042980  *  177.4036920  *    15    11     6
    40       H          1.09236700  *  109.8073180  *  177.3268100  *    16    14    10
    41       H          1.09306000  *  109.7389920  *  -64.6754520  *    16    14    10
    42       H          1.09261100  *  109.9309730  *   64.8287490  *    17    15    11
    43       H          1.09232100  *  109.6452900  * -177.2014200  *    17    15    11
    44       H          1.03218500  *   44.2121330  * -140.7594990  *     2     1     3


 General Reference for PM7:
 "Optimization of Parameters for Semiempirical Methods VI: More Modifications to the 
 NDDO Approximations and Re-optimization of Parameters", J. J. P. Stewart, J. Mol. Mod., 1:32, 19 (2013)
 https://link.springer.com/article/10.1007/s00894-012-1667-x

           Empirical Formula: C15 H27 N2  =    44 atoms



      MOLECULAR POINT GROUP   :   C1  


      RHF CALCULATION, NO. OF DOUBLY OCCUPIED LEVELS = 48


          Geometry optimization using EF

  HEAT OF FORMATION        119.52449080648512    
 PARAMETERS        0.000   0.000   0.000   2.918   0.000   0.000   2.533   0.976
   0.000   2.501   1.053   5.104   1.496   1.483   0.361   1.523   1.433   1.635

   1.543   1.550   4.701   1.488   1.480   4.650   1.514   1.454   5.967   1.550

   1.932   1.650   1.552   2.007   3.471   1.485   2.560   2.543   1.513   2.642

   3.790   1.541   1.930   0.975   1.542   1.940   5.398   1.541   1.917   5.302

   1.541   1.932   0.981   1.093   2.475   2.616   1.093   2.533   3.879   1.095

   1.881   3.693   1.094   1.706   1.468   1.093   1.923   4.800   1.092   1.927

   2.742   1.094   1.910   4.699   1.094   1.903   2.642   1.092   1.896   4.600

   1.093   1.855   2.576   1.092   1.929   5.160   1.093   1.919   3.088   1.093

   1.917   3.289   1.092   1.928   1.226   1.094   1.912   3.105   1.094   1.912

   1.033   1.093   1.973   1.208   1.094   1.717   5.490   1.092   1.918   3.190

   1.093   1.916   1.127   1.093   1.913   5.151   1.093   1.915   3.096   1.092

   1.916   3.095   1.093   1.915   5.154   1.093   1.919   1.131   1.092   1.914

   3.190   1.032   0.772   3.826
 GRADIENT          0.000  -0.000   0.000  27.454   0.000   0.000   6.412  39.020
   0.000  16.433  -7.281 -23.158   2.088  -4.705  12.859 -22.715   1.377  -4.871

   0.627   7.249  -9.191   0.918  -8.564  -1.316 -16.193  -7.103  -1.185   6.698

   2.214  14.353  21.534  23.704 -19.651  -3.592  -9.841  -1.459 -21.887   0.205

  -0.449   5.976   4.146   7.528  13.674  21.231 -16.752   4.129   7.621   4.496

   2.412  20.243  -0.982 -14.423   1.509   2.428 -14.360  -2.021   1.628 -20.427

  -4.538  -1.127 -25.466 -21.170   0.969  -9.020  -1.611   1.678  -7.897  -2.082

  -1.502 -10.357   4.300   1.824 -14.663  -6.748  -1.858 -12.182  -1.356  -1.354

 -14.934  -6.075  -1.218  -7.246   0.236   1.764  -7.813   1.101  -1.516  -9.380

   1.892   2.410  -9.399   0.151  -3.674 -13.586  -5.060   2.024 -10.628   3.630

  -1.333  -9.423   7.377  -1.659 -21.888 -23.316  -2.518  -8.488  -0.786   1.701

  -8.411  -1.532  -2.150  -9.094  -2.108   3.419  -9.780  -0.863  -1.939  -8.771

  -1.726  -0.724  -7.749  -0.720   1.688  -9.207  -1.060  -3.314 -10.500  -2.286

   0.873 -22.962  11.631   0.434

          DIAGONAL MATRIX USED AS START HESSIAN

*REMARK   3 HET = Not identified; C 15 H 27 N 2      =    44 atoms res:    1
 PM7 CHARGE=+1 EF NOXYZ PRNT=2 PDBOUT COMPFG GRAPHF
 644020

  N(HETATM    1  N1  HET A   1)   0.00000000 +1    0.0000000 +1    0.0000000 +1
  N(HETATM    2  N2  HET A   1)   2.91792700 +1    0.0000000 +1    0.0000000 +1     1     0     0
  C(HETATM    3  C1  HET A   1)   2.53317000 +1   55.9177900 +1    0.0000000 +1     1     2     0
  C(HETATM    4  C2  HET A   1)   2.50073500 +1   60.3168050 +1  -67.5500010 +1     3     1     2
  C(HETATM    5  C3  HET A   1)   1.49631000 +1   84.9919420 +1   20.6822230 +1     1     2     3
  C(HETATM    6  C4  HET A   1)   1.52265400 +1   82.1027410 +1   93.6649190 +1     2     1     3
  C(HETATM    7  C5  HET A   1)   1.54291300 +1   88.8253020 +1  -90.6335260 +1     3     1     2
  C(HETATM    8  C6  HET A   1)   1.48846500 +1   84.8157310 +1  -93.5821970 +1     1     2     3
  C(HETATM    9  C7  HET A   1)   1.51391300 +1   83.3101790 +1  -18.1409090 +1     2     1     3
  C(HETATM   10  C8  HET A   1)   1.55013800 +1  110.6967170 +1   94.5233890 +1     5     1     2
  C(HETATM   11  C9  HET A   1)   1.55236800 +1  115.0069980 +1 -161.1168060 +1     6     2     1
  C(HETATM   12  C10 HET A   1)   1.48458000 +1  146.6569630 +1  145.6911940 +1     1     2     3
  C(HETATM   13  C11 HET A   1)   1.51277000 +1  151.3529670 +1 -142.8506510 +1     2     1     3
  C(HETATM   14  C12 HET A   1)   1.54065800 +1  110.5802090 +1   55.8371900 +1    10     5     1
  C(HETATM   15  C13 HET A   1)   1.54177900 +1  111.1389730 +1  -50.6888250 +1    11     6     2
  C(HETATM   16  C14 HET A   1)   1.54092100 +1  109.8116660 +1  -56.2446120 +1    14    10     5
  C(HETATM   17  C15 HET A   1)   1.54130400 +1  110.6829500 +1   56.2081500 +1    15    11     6
  H(HETATM   18  H1  HET A   1)   1.09269300 +1  141.8191340 +1  149.8606870 +1     3     1     2
  H(HETATM   19 1H2  HET A   1)   1.09274500 +1  145.1360080 +1 -137.7285020 +1     4     3     1
  H(HETATM   20  H3  HET A   1)   1.09463600 +1  107.7530450 +1 -148.4136970 +1     5     1     2
  H(HETATM   21  H4  HET A   1)   1.09387400 +1   97.7249630 +1   84.1295930 +1     6     2     1
  H(HETATM   22 1H5  HET A   1)   1.09319600 +1  110.1606860 +1  -84.9544510 +1     7     3     1
  H(HETATM   23 2H5  HET A   1)   1.09197400 +1  110.4323290 +1  157.1254030 +1     7     3     1
  H(HETATM   24 1H6  HET A   1)   1.09383300 +1  109.4225190 +1  -90.7515100 +1     8     1     2
  H(HETATM   25 2H6  HET A   1)   1.09418400 +1  109.0168290 +1  151.3526670 +1     8     1     2
  H(HETATM   26 1H7  HET A   1)   1.09223700 +1  108.6541570 +1  -96.4253440 +1     9     2     1
  H(HETATM   27 2H7  HET A   1)   1.09335000 +1  106.2744110 +1  147.5775870 +1     9     2     1
  H(HETATM   28 1H8  HET A   1)   1.09203100 +1  110.5322160 +1  -64.3808930 +1    10     5     1
  H(HETATM   29 2H8  HET A   1)   1.09259200 +1  109.9603430 +1  176.9290310 +1    10     5     1
  H(HETATM   30 1H9  HET A   1)   1.09254600 +1  109.8171690 +1 -171.5417520 +1    11     6     2
  H(HETATM   31 2H9  HET A   1)   1.09188300 +1  110.4416430 +1   70.2261650 +1    11     6     2
  H(HETATM   32 1H10 HET A   1)   1.09411600 +1  109.5301150 +1  177.9306820 +1    12     1     2
  H(HETATM   33 2H10 HET A   1)   1.09373200 +1  109.5384400 +1   59.1652360 +1    12     1     2
  H(HETATM   34 1H11 HET A   1)   1.09330900 +1  113.0466820 +1   69.2026940 +1    13     2     1
  H(HETATM   35 2H11 HET A   1)   1.09360800 +1   98.3935490 +1  -45.4429680 +1    13     2     1
  H(HETATM   36 1H12 HET A   1)   1.09244500 +1  109.8904950 +1 -177.2372240 +1    14    10     5
  H(HETATM   37 2H12 HET A   1)   1.09295200 +1  109.7762900 +1   64.5489810 +1    14    10     5
  H(HETATM   38 1H13 HET A   1)   1.09313900 +1  109.6247850 +1  -64.8837540 +1    15    11     6
  H(HETATM   39 2H13 HET A   1)   1.09263000 +1  109.7042980 +1  177.4036920 +1    15    11     6
  H(HETATM   40 1H14 HET A   1)   1.09236700 +1  109.8073180 +1  177.3268100 +1    16    14    10
  H(HETATM   41 2H14 HET A   1)   1.09306000 +1  109.7389920 +1  -64.6754520 +1    16    14    10
  H(HETATM   42 1H15 HET A   1)   1.09261100 +1  109.9309730 +1   64.8287490 +1    17    15    11
  H(HETATM   43 2H15 HET A   1)   1.09232100 +1  109.6452900 +1 -177.2014200 +1    17    15    11
  H(HETATM   44 2H2  HET A   1)   1.03218500 +1   44.2121330 +1 -140.7594990 +1     2     1     3

 XPARAM 
  1  1    0.0000  1  2    0.0000  1  3    0.0000  2  1    2.9179  2  2    0.0000
  2  3    0.0000  3  1    2.5332  3  2    0.9759  3  3    0.0000  4  1    2.5007
  4  2    1.0527  4  3    5.1042  5  1    1.4963  5  2    1.4834  5  3    0.3610
  6  1    1.5227  6  2    1.4330  6  3    1.6348  7  1    1.5429  7  2    1.5503
  7  3    4.7013  8  1    1.4885  8  2    1.4803  8  3    4.6499  9  1    1.5139
  9  2    1.4540  9  3    5.9666 10  1    1.5501 10  2    1.9320 10  3    1.6497
 11  1    1.5524 11  2    2.0073 11  3    3.4712 12  1    1.4846 12  2    2.5596
 12  3    2.5428 13  1    1.5128 13  2    2.6416 13  3    3.7900 14  1    1.5407
 14  2    1.9300 14  3    0.9745 15  1    1.5418 15  2    1.9397 15  3    5.3985
 16  1    1.5409 16  2    1.9166 16  3    5.3015 17  1    1.5413 17  2    1.9318
 17  3    0.9810 18  1    1.0927 18  2    2.4752 18  3    2.6156 19  1    1.0927
 19  2    2.5331 19  3    3.8794 20  1    1.0946 20  2    1.8806 20  3    3.6929
 21  1    1.0939 21  2    1.7056 21  3    1.4683 22  1    1.0932 22  2    1.9227
 22  3    4.8005 23  1    1.0920 23  2    1.9274 23  3    2.7424 24  1    1.0938
 24  2    1.9098 24  3    4.6993 25  1    1.0942 25  2    1.9027 25  3    2.6416
 26  1    1.0922 26  2    1.8964 26  3    4.6002 27  1    1.0934 27  2    1.8548
 27  3    2.5757 28  1    1.0920 28  2    1.9292 28  3    5.1595 29  1    1.0926
 29  2    1.9192 29  3    3.0880 30  1    1.0925 30  2    1.9167 30  3    3.2892
 31  1    1.0919 31  2    1.9276 31  3    1.2257 32  1    1.0941 32  2    1.9117
 32  3    3.1055 33  1    1.0937 33  2    1.9118 33  3    1.0326 34  1    1.0933
 34  2    1.9730 34  3    1.2078 35  1    1.0936 35  2    1.7173 35  3    5.4901
 36  1    1.0924 36  2    1.9180 36  3    3.1898 37  1    1.0930 37  2    1.9160
 37  3    1.1266 38  1    1.0931 38  2    1.9133 38  3    5.1508 39  1    1.0926
 39  2    1.9147 39  3    3.0963 40  1    1.0924 40  2    1.9165 40  3    3.0949
 41  1    1.0931 41  2    1.9153 41  3    5.1544 42  1    1.0926 42  2    1.9187
 42  3    1.1315 43  1    1.0923 43  2    1.9137 43  3    3.1904 44  1    1.0322
 44  2    0.7716 44  3    3.8265
 grad
       0.00003   -0.00003    0.00000   27.45379    0.00000    0.00000    6.41159   39.01977
       0.00000   16.43254   -7.28089  -23.15822    2.08764   -4.70524   12.85866  -22.71523
       1.37682   -4.87140    0.62681    7.24906   -9.19109    0.91775   -8.56445   -1.31597
     -16.19330   -7.10293   -1.18482    6.69831    2.21423   14.35260   21.53356   23.70425
     -19.65131   -3.59195   -9.84067   -1.45864  -21.88711    0.20511   -0.44896    5.97609
       4.14594    7.52840   13.67416   21.23056  -16.75166    4.12912    7.62055    4.49574
       2.41190   20.24284   -0.98226  -14.42253    1.50906    2.42814  -14.36023   -2.02065
       1.62754  -20.42681   -4.53824   -1.12676  -25.46564  -21.17009    0.96910   -9.02030
      -1.61141    1.67828   -7.89728   -2.08172   -1.50156  -10.35742    4.30021    1.82361
     -14.66343   -6.74768   -1.85842  -12.18211   -1.35630   -1.35439  -14.93374   -6.07503
      -1.21809   -7.24563    0.23566    1.76418   -7.81348    1.10107   -1.51610   -9.37984
       1.89236    2.41004   -9.39938    0.15100   -3.67357  -13.58636   -5.06003    2.02367
     -10.62840    3.63026   -1.33266   -9.42279    7.37698   -1.65928  -21.88768  -23.31621
      -2.51838   -8.48772   -0.78589    1.70120   -8.41099   -1.53173   -2.14951   -9.09362
      -2.10809    3.41865   -9.78024   -0.86282   -1.93882   -8.77091   -1.72580   -0.72358
      -7.74883   -0.72029    1.68841   -9.20665   -1.05983   -3.31408  -10.50013   -2.28569
       0.87334  -22.96170   11.63113    0.43388
 CYCLE:     1 TIME:   0.023 TIME LEFT:  2.00D  GRAD.:   119.887 HEAT:  119.5245

          HESSIAN HAS  0 NEGATIVE EIGENVALUE(S)
  MIN SEARCH, CORRECT HESSIAN, TRYING PURE NR STEP
 LAMBDA THAT MINIMIZES ALONG ALL MODES =        0.000000000
 PURE NR-STEP HAS LENGTH   0.26047
 LAMBDA THAT MINIMIZES ALONG ALL MODES =      -22.725629035
 P-RFO-STEP   HAS LENGTH   0.23998
 LAMBDA THAT MINIMIZES ALONG ALL MODES =      -84.623823749
 QA/TRIM-STEP HAS LENGTH   0.20000

  HEAT OF FORMATION        168.60127887708222    
 PARAMETERS        0.007  -0.008  -0.012   2.900   0.030  -0.016   2.528   0.932
  -0.011   2.487   1.078   5.175   1.492   1.501   0.308   1.542   1.439   1.644

   1.541   1.541   4.726   1.487   1.497   4.647   1.528   1.466   5.963   1.539

   1.936   1.593   1.528   1.972   3.535   1.479   2.582   2.544   1.524   2.645

   3.788   1.530   1.932   0.942   1.525   1.905   5.452   1.533   1.905   5.280

   1.534   1.906   0.979   1.104   2.473   2.606   1.104   2.536   3.873   1.112

   1.888   3.695   1.116   1.743   1.463   1.100   1.925   4.793   1.098   1.931

   2.746   1.102   1.902   4.691   1.106   1.915   2.647   1.102   1.898   4.603

   1.106   1.866   2.578   1.098   1.928   5.152   1.099   1.917   3.092   1.100

   1.913   3.279   1.099   1.928   1.237   1.105   1.920   3.097   1.102   1.907

   1.036   1.100   1.961   1.212   1.113   1.756   5.497   1.099   1.919   3.182

   1.099   1.920   1.133   1.100   1.916   5.137   1.100   1.916   3.102   1.099

   1.920   3.096   1.099   1.916   5.147   1.100   1.922   1.142   1.101   1.918

   3.186   1.054   0.751   3.822
 GRADIENT          0.000  -0.000   0.000-264.771   0.000   0.000  73.719-593.572
   0.000  17.375 222.900 643.792  10.711  23.436 -65.780  29.468-156.982-195.022

  -5.163 -26.174   8.190 -14.882  83.263  -5.169  35.493 -93.169  61.064  58.995

 150.429-130.709-183.430-344.188 -75.005  -5.079  90.245  43.739  56.279 169.196

 -15.394  -1.595 133.622 -81.080 -74.612-369.938  61.305 -11.022  14.000-118.902

  51.275-151.206-136.225 -16.509  11.161  -6.841 -23.510   5.483 -16.333  -2.299

 -10.818  -8.100 -23.633  -6.084 -15.935  -1.919  -4.218  -4.375  -8.560   0.544

  -9.817  -3.205   0.832   1.099   2.689 -14.557  13.476 -10.179   3.023   2.365

 -12.359  -2.573  -5.638  -5.839  -0.478   2.779  -4.381  -0.600   1.065  -5.209

  -4.651  -3.838  -8.811  -2.620  -4.578   3.797 -14.901 -13.805  -0.154  -2.965

   4.597 -19.258  14.975  16.199  -6.427 -20.728   7.517  -5.971  -0.897   2.281

  -4.391  -2.549  -0.036  -5.419  -3.570   2.720  -6.091  -1.966  -1.104  -1.812

  -3.345  -0.094   6.439 -11.165 -14.272  -4.885  -4.459   2.866 -25.643  10.888

  26.609  -7.855  10.600  -0.497
       HoF         ACTUAL,  PREDICTED ENERGY CHANGE, RATIO
   168.6012789    49.0767881         -11.5740356   -4.2402486
 UNACCEPTABLE RATIO, REJECTING STEP, REDUCING DMAX TO 0.1000
  MIN SEARCH, CORRECT HESSIAN, TRYING PURE NR STEP
 LAMBDA THAT MINIMIZES ALONG ALL MODES =        0.000000000
 PURE NR-STEP HAS LENGTH   0.26047
 LAMBDA THAT MINIMIZES ALONG ALL MODES =      -22.725629035
 P-RFO-STEP   HAS LENGTH   0.23998
 LAMBDA THAT MINIMIZES ALONG ALL MODES =     -541.442465363
 QA/TRIM-STEP HAS LENGTH   0.10000

  HEAT OF FORMATION        124.97439354859671    
 PARAMETERS        0.006  -0.004  -0.005   2.906   0.017  -0.006   2.530   0.951
  -0.004   2.491   1.067   5.132   1.494   1.494   0.341   1.536   1.436   1.638

   1.541   1.545   4.711   1.487   1.490   4.649   1.523   1.461   5.965   1.542

   1.935   1.628   1.535   1.987   3.496   1.481   2.572   2.543   1.521   2.644

   3.789   1.533   1.931   0.962   1.530   1.920   5.419   1.535   1.910   5.293

   1.536   1.918   0.980   1.100   2.474   2.612   1.100   2.535   3.877   1.107

   1.885   3.694   1.110   1.726   1.466   1.098   1.924   4.798   1.096   1.930

   2.744   1.100   1.905   4.696   1.103   1.909   2.643   1.099   1.897   4.601

   1.102   1.861   2.577   1.096   1.928   5.157   1.097   1.918   3.089   1.098

   1.915   3.285   1.097   1.928   1.230   1.102   1.917   3.102   1.100   1.909

   1.034   1.098   1.967   1.209   1.107   1.739   5.493   1.097   1.919   3.187

   1.097   1.918   1.129   1.098   1.915   5.145   1.098   1.916   3.098   1.097

   1.918   3.095   1.097   1.915   5.151   1.098   1.920   1.135   1.098   1.916

   3.189   1.048   0.760   3.825
 GRADIENT          0.000  -0.000   0.000 -75.861   0.000   0.000  38.423-226.116
   0.000   9.807 100.503 190.316   5.352  17.074 -16.517 -20.234   3.419 -55.038

  -1.180 -16.107   4.721 -10.119  42.062  -9.455  13.510 -50.315  28.825  32.051

  73.389 -52.176 -97.961-202.926 -71.328  -8.589  38.830  19.683  29.077 110.083

 -14.728   1.281  67.241 -32.094 -40.718-214.502  17.712  -6.346  11.626 -54.091

  29.601 -81.818 -92.620 -14.236   7.097  -2.355 -15.050   0.035  -5.687  -8.975

  -7.818  -5.905 -20.034 -13.021  -5.354  -5.341  -2.295  -0.483  -7.927  -0.369

  -5.935  -5.555   2.406   1.423  -4.076 -10.605   5.786 -10.076   1.250   0.654

 -12.245  -3.311  -4.010  -5.984  -0.071   2.452  -5.651   0.382  -0.772  -6.890

  -1.264   0.172  -8.180  -1.439  -4.190  -3.730  -9.846  -5.296  -5.026   0.562

   0.539 -14.186  12.498   6.966 -14.358 -19.083  -0.742  -6.482  -0.967   2.045

  -5.822  -2.045  -1.474  -6.615  -3.143   3.190  -7.151  -1.746  -1.624  -5.184

  -2.197  -1.250  -0.314  -5.702  -5.627  -8.674  -0.567  -2.775 -18.384   5.625

  14.715 -12.197  11.059   0.103
       HoF         ACTUAL,  PREDICTED ENERGY CHANGE, RATIO
   124.9743935     5.4499027          -8.1528417   -0.6684666
 UNACCEPTABLE RATIO, REJECTING STEP, REDUCING DMAX TO 0.0500
  MIN SEARCH, CORRECT HESSIAN, TRYING PURE NR STEP
 LAMBDA THAT MINIMIZES ALONG ALL MODES =        0.000000000
 PURE NR-STEP HAS LENGTH   0.26047
 LAMBDA THAT MINIMIZES ALONG ALL MODES =      -22.725629035
 P-RFO-STEP   HAS LENGTH   0.23998
 LAMBDA THAT MINIMIZES ALONG ALL MODES =    -1608.029704373
 QA/TRIM-STEP HAS LENGTH   0.05000

  HEAT OF FORMATION        117.63384947706072    
 PARAMETERS        0.004  -0.002  -0.002   2.911   0.008  -0.002   2.531   0.964
  -0.001   2.495   1.060   5.116   1.495   1.488   0.353   1.531   1.435   1.636

   1.542   1.548   4.705   1.487   1.485   4.649   1.519   1.457   5.966   1.546

   1.933   1.641   1.542   1.997   3.481   1.482   2.566   2.543   1.517   2.643

   3.790   1.536   1.931   0.969   1.535   1.930   5.407   1.537   1.913   5.298

   1.538   1.925   0.981   1.097   2.475   2.614   1.097   2.534   3.878   1.102

   1.883   3.693   1.103   1.716   1.467   1.096   1.923   4.799   1.094   1.928

   2.743   1.097   1.908   4.698   1.099   1.906   2.642   1.096   1.897   4.601

   1.099   1.858   2.576   1.094   1.929   5.158   1.095   1.919   3.089   1.096

   1.916   3.288   1.095   1.928   1.227   1.099   1.914   3.104   1.097   1.910

   1.033   1.096   1.970   1.208   1.102   1.728   5.491   1.095   1.918   3.189

   1.096   1.917   1.128   1.096   1.914   5.149   1.096   1.915   3.097   1.095

   1.917   3.095   1.095   1.915   5.153   1.096   1.919   1.133   1.096   1.915

   3.190   1.041   0.766   3.826
 GRADIENT          0.000  -0.000   0.000 -14.835   0.000   0.000  22.281 -77.197
   0.000  11.890  45.868  59.998   2.920   7.608   1.427 -22.515  10.514 -21.815

   0.030  -5.378  -1.445  -5.192  16.675  -6.952  -1.015 -26.774  12.303  17.199

  33.318 -14.784 -34.760 -81.478 -44.407  -6.708  11.981   7.686   3.624  51.213

  -8.000   2.983  31.574  -9.925 -13.800 -88.982  -0.831  -1.409   9.007 -21.293

  13.694 -28.948 -44.174 -13.777   4.299   0.145 -13.781  -1.370  -1.612 -14.083

  -6.132  -3.708 -21.425 -17.007  -1.514  -7.131  -1.793   0.870  -7.707  -1.201

  -3.650  -7.599   3.334   1.601  -8.954  -8.568   1.746 -10.676   0.027  -0.355

 -13.017  -4.516  -2.654  -6.444   0.052   2.129  -6.594   0.757  -1.297  -8.036

   0.379   1.589  -8.541  -0.704  -3.967  -8.508  -7.249  -1.222  -7.742   2.243

  -0.717 -11.234   9.952   2.209 -17.865 -20.580  -2.461  -7.257  -0.926   1.898

  -6.939  -1.784  -1.940  -7.669  -2.695   3.355  -8.230  -1.396  -1.829  -6.949

  -1.873  -1.165  -4.139  -2.997  -1.547  -9.096  -0.348  -3.740 -13.849   1.628

   7.531 -16.538  11.379   0.312
       HoF         ACTUAL,  PREDICTED ENERGY CHANGE, RATIO
   117.6338495    -1.8906413          -4.8159025    0.3925830
     STEPSIZE USED IS  0.05000
 CALCULATED STEP
     0.003564 -0.002156 -0.002314 -0.006963  0.008396 -0.002263 -0.001800 -0.012024
    -0.001495 -0.005908  0.007111  0.011360 -0.001519  0.005054 -0.008309  0.008113
     0.001578  0.001466 -0.001190 -0.002774  0.003929 -0.001111  0.004573 -0.000471
     0.005506  0.003263 -0.000560 -0.004516  0.001265 -0.008856 -0.010429 -0.009893
     0.009998 -0.002279  0.006288  0.000278  0.004500  0.000952 -0.000229 -0.004226
     0.000677 -0.005083 -0.007254 -0.009782  0.008352 -0.003531 -0.003277 -0.003414
    -0.002864 -0.006961 -0.000374  0.004537 -0.000638 -0.001513  0.004463  0.000841
    -0.001060  0.007302  0.002066  0.000346  0.009378  0.010299 -0.000845  0.002891
     0.000506 -0.001198  0.002464  0.001045  0.000562  0.003415 -0.002283 -0.001281
     0.005078  0.003276  0.000755  0.004125  0.000414  0.000475  0.005219  0.002967
     0.000392  0.002205 -0.000427 -0.001244  0.002437 -0.000517  0.000568  0.003039
    -0.000924 -0.001604  0.003045  0.000220  0.001763  0.004656  0.002404 -0.001391
     0.003529 -0.001399  0.000466  0.003018 -0.003204  0.000657  0.007984  0.010696
     0.001086  0.002696  0.000362 -0.001211  0.002675  0.001035  0.000918  0.002926
     0.000687 -0.002162  0.003195  0.000413  0.000801  0.002806  0.000822  0.000129
     0.002408  0.000028 -0.001205  0.002978  0.000810  0.001563  0.003471  0.001073
    -0.000754  0.009143 -0.005685 -0.000717
     NEW TRUST RADIUS =  0.05000

     HESSIAN IS BEING UPDATED USING THE BFGS UPDATE

*REMARK   3 HET = Not identified; C 15 H 27 N 2      =    44 atoms res:    1
 PM7 CHARGE=+1 EF NOXYZ PRNT=2 PDBOUT COMPFG GRAPHF
 644020

  N(HETATM    1  N1  HET A   1)   0.00356381 +1   -0.0021556 +1   -0.0023144 +1
  N(HETATM    2  N2  HET A   1)   2.91096418 +1    0.4810316 +1   -0.1296425 +1     1     0     0
  C(HETATM    3  C1  HET A   1)   2.53137033 +1   55.2288700 +1   -0.0856711 +1     1     2     0
  C(HETATM    4  C2  HET A   1)   2.49482712 +1   60.7242593 +1  -66.8990941 +1     3     1     2
  C(HETATM    5  C3  HET A   1)   1.49479076 +1   85.2815104 +1   20.2061550 +1     1     2     3
  C(HETATM    6  C4  HET A   1)   1.53076694 +1   82.1931625 +1   93.7489396 +1     2     1     3
  C(HETATM    7  C5  HET A   1)   1.54172342 +1   88.6663737 +1  -90.4084199 +1     3     1     2
  C(HETATM    8  C6  HET A   1)   1.48735386 +1   85.0777359 +1  -93.6091929 +1     1     2     3
  C(HETATM    9  C7  HET A   1)   1.51941891 +1   83.4971401 +1  -18.1729726 +1     2     1     3
  C(HETATM   10  C8  HET A   1)   1.54562198 +1  110.7691933 +1   94.0160002 +1     5     1     2
  C(HETATM   11  C9  HET A   1)   1.54193935 +1  114.4401955 +1 -160.5439436 +1     6     2     1
  C(HETATM   12  C10 HET A   1)   1.48230074 +1  147.0172441 +1  145.7071382 +1     1     2     3
  C(HETATM   13  C11 HET A   1)   1.51726965 +1  151.4075348 +1 -142.8637590 +1     2     1     3
  C(HETATM   14  C12 HET A   1)   1.53643209 +1  110.6189787 +1   55.5459763 +1    10     5     1
  C(HETATM   15  C13 HET A   1)   1.53452468 +1  110.5785269 +1  -50.2102647 +1    11     6     2
  C(HETATM   16  C14 HET A   1)   1.53739035 +1  109.6239329 +1  -56.4401992 +1    14    10     5
  C(HETATM   17  C15 HET A   1)   1.53843978 +1  110.2841358 +1   56.1867002 +1    15    11     6
  H(HETATM   18  H1  HET A   1)   1.09722978 +1  141.7825810 +1  149.7739914 +1     3     1     2
  H(HETATM   19 1H2  HET A   1)   1.09720834 +1  145.1842167 +1 -137.7892300 +1     4     3     1
  H(HETATM   20  H3  HET A   1)   1.10193762 +1  107.8714357 +1 -148.3938701 +1     5     1     2
  H(HETATM   21  H4  HET A   1)   1.10325222 +1   98.3150368 +1   84.0811978 +1     6     2     1
  H(HETATM   22 1H5  HET A   1)   1.09608741 +1  110.1896502 +1  -85.0230816 +1     7     3     1
  H(HETATM   23 2H5  HET A   1)   1.09443787 +1  110.4922113 +1  157.1575887 +1     7     3     1
  H(HETATM   24 1H6  HET A   1)   1.09724754 +1  109.2917368 +1  -90.8248788 +1     8     1     2
  H(HETATM   25 2H6  HET A   1)   1.09926193 +1  109.2045449 +1  151.3959075 +1     8     1     2
  H(HETATM   26 1H7  HET A   1)   1.09636202 +1  108.6779046 +1  -96.3981420 +1     9     2     1
  H(HETATM   27 2H7  HET A   1)   1.09856932 +1  106.4443810 +1  147.6000418 +1     9     2     1
  H(HETATM   28 1H8  HET A   1)   1.09423568 +1  110.5077365 +1  -64.4521792 +1    10     5     1
  H(HETATM   29 2H8  HET A   1)   1.09502907 +1  109.9306951 +1  176.9615929 +1    10     5     1
  H(HETATM   30 1H9  HET A   1)   1.09558495 +1  109.7642318 +1 -171.6336341 +1    11     6     2
  H(HETATM   31 2H9  HET A   1)   1.09492770 +1  110.4542499 +1   70.3271825 +1    11     6     2
  H(HETATM   32 1H10 HET A   1)   1.09877240 +1  109.6678545 +1  177.8509928 +1    12     1     2
  H(HETATM   33 2H10 HET A   1)   1.09726094 +1  109.4582918 +1   59.1919088 +1    12     1     2
  H(HETATM   34 1H11 HET A   1)   1.09632709 +1  112.8631257 +1   69.2403487 +1    13     2     1
  H(HETATM   35 2H11 HET A   1)   1.10159191 +1   99.0063682 +1  -45.3807261 +1    13     2     1
  H(HETATM   36 1H12 HET A   1)   1.09514121 +1  109.9112255 +1 -177.3066299 +1    14    10     5
  H(HETATM   37 2H12 HET A   1)   1.09562715 +1  109.8355691 +1   64.6015823 +1    14    10     5
  H(HETATM   38 1H13 HET A   1)   1.09606470 +1  109.6641472 +1  -65.0076328 +1    15    11     6
  H(HETATM   39 2H13 HET A   1)   1.09582466 +1  109.7279571 +1  177.4496035 +1    15    11     6
  H(HETATM   40 1H14 HET A   1)   1.09517324 +1  109.8544300 +1  177.3342296 +1    16    14    10
  H(HETATM   41 2H14 HET A   1)   1.09546849 +1  109.7405976 +1  -64.7444796 +1    16    14    10
  H(HETATM   42 1H15 HET A   1)   1.09558910 +1  109.9773636 +1   64.9182827 +1    17    15    11
  H(HETATM   43 2H15 HET A   1)   1.09579218 +1  109.7067724 +1 -177.2446355 +1    17    15    11
  H(HETATM   44 2H2  HET A   1)   1.04132762 +1   43.8863916 +1 -140.8005814 +1     2     1     3

 XPARAM 
  1  1    0.0036  1  2   -0.0022  1  3   -0.0023  2  1    2.9110  2  2    0.0084
  2  3   -0.0023  3  1    2.5314  3  2    0.9639  3  3   -0.0015  4  1    2.4948
  4  2    1.0598  4  3    5.1156  5  1    1.4948  5  2    1.4884  5  3    0.3527
  6  1    1.5308  6  2    1.4345  6  3    1.6362  7  1    1.5417  7  2    1.5475
  7  3    4.7053  8  1    1.4874  8  2    1.4849  8  3    4.6494  9  1    1.5194
  9  2    1.4573  9  3    5.9660 10  1    1.5456 10  2    1.9333 10  3    1.6409
 11  1    1.5419 11  2    1.9974 11  3    3.4812 12  1    1.4823 12  2    2.5659
 12  3    2.5431 13  1    1.5173 13  2    2.6426 13  3    3.7897 14  1    1.5364
 14  2    1.9307 14  3    0.9695 15  1    1.5345 15  2    1.9300 15  3    5.4069
 16  1    1.5374 16  2    1.9133 16  3    5.2981 17  1    1.5384 17  2    1.9248
 17  3    0.9806 18  1    1.0972 18  2    2.4746 18  3    2.6140 19  1    1.0972
 19  2    2.5339 19  3    3.8783 20  1    1.1019 20  2    1.8827 20  3    3.6932
 21  1    1.1033 21  2    1.7159 21  3    1.4675 22  1    1.0961 22  2    1.9232
 22  3    4.7993 23  1    1.0944 23  2    1.9285 23  3    2.7429 24  1    1.0972
 24  2    1.9075 24  3    4.6980 25  1    1.0993 25  2    1.9060 25  3    2.6424
 26  1    1.0964 26  2    1.8968 26  3    4.6007 27  1    1.0986 27  2    1.8578
 27  3    2.5761 28  1    1.0942 28  2    1.9287 28  3    5.1583 29  1    1.0950
 29  2    1.9187 29  3    3.0886 30  1    1.0956 30  2    1.9157 30  3    3.2876
 31  1    1.0949 31  2    1.9278 31  3    1.2274 32  1    1.0988 32  2    1.9141
 32  3    3.1041 33  1    1.0973 33  2    1.9104 33  3    1.0331 34  1    1.0963
 34  2    1.9698 34  3    1.2085 35  1    1.1016 35  2    1.7280 35  3    5.4911
 36  1    1.0951 36  2    1.9183 36  3    3.1886 37  1    1.0956 37  2    1.9170
 37  3    1.1275 38  1    1.0961 38  2    1.9140 38  3    5.1486 39  1    1.0958
 39  2    1.9151 39  3    3.0971 40  1    1.0952 40  2    1.9173 40  3    3.0951
 41  1    1.0955 41  2    1.9153 41  3    5.1532 42  1    1.0956 42  2    1.9195
 42  3    1.1330 43  1    1.0958 43  2    1.9147 43  3    3.1897 44  1    1.0413
 44  2    0.7660 44  3    3.8258
 grad
       0.00003   -0.00002    0.00000  -14.83528    0.00000    0.00000   22.28054  -77.19674
       0.00000   11.89006   45.86772   59.99836    2.91959    7.60843    1.42673  -22.51536
      10.51406  -21.81466    0.02964   -5.37810   -1.44477   -5.19237   16.67503   -6.95223
      -1.01544  -26.77396   12.30291   17.19904   33.31789  -14.78376  -34.76037  -81.47751
     -44.40721   -6.70796   11.98067    7.68598    3.62383   51.21252   -8.00024    2.98285
      31.57412   -9.92516  -13.79958  -88.98174   -0.83051   -1.40922    9.00736  -21.29257
      13.69384  -28.94822  -44.17380  -13.77708    4.29851    0.14452  -13.78113   -1.37045
      -1.61236  -14.08270   -6.13175   -3.70835  -21.42483  -17.00745   -1.51404   -7.13075
      -1.79282    0.87003   -7.70686   -1.20109   -3.65017   -7.59893    3.33397    1.60128
      -8.95422   -8.56822    1.74571  -10.67624    0.02735   -0.35511  -13.01730   -4.51638
      -2.65421   -6.44416    0.05183    2.12892   -6.59373    0.75719   -1.29699   -8.03631
       0.37879    1.58944   -8.54102   -0.70371   -3.96696   -8.50810   -7.24905   -1.22245
      -7.74223    2.24274   -0.71684  -11.23365    9.95236    2.20918  -17.86519  -20.58004
      -2.46087   -7.25665   -0.92581    1.89770   -6.93944   -1.78421   -1.94011   -7.66871
      -2.69539    3.35468   -8.22988   -1.39648   -1.82880   -6.94937   -1.87317   -1.16524
      -4.13850   -2.99703   -1.54675   -9.09632   -0.34837   -3.74016  -13.84853    1.62786
       7.53128  -16.53771   11.37884    0.31170
 CYCLE:     2 TIME:   0.047 TIME LEFT:  2.00D  GRAD.:   215.960 HEAT:  117.6338

          HESSIAN HAS  0 NEGATIVE EIGENVALUE(S)
  MIN SEARCH, CORRECT HESSIAN, TRYING PURE NR STEP
 LAMBDA THAT MINIMIZES ALONG ALL MODES =        0.000000000
 PURE NR-STEP HAS LENGTH   0.62551
 LAMBDA THAT MINIMIZES ALONG ALL MODES =      -43.245982974
 P-RFO-STEP   HAS LENGTH   0.46727
 LAMBDA THAT MINIMIZES ALONG ALL MODES =    -1701.601495159
 QA/TRIM-STEP HAS LENGTH   0.05000

  HEAT OF FORMATION        114.70589253199432    
 PARAMETERS        0.006  -0.004  -0.006   2.908   0.012  -0.004   2.526   0.969
  -0.003   2.486   1.055   5.108   1.493   1.489   0.346   1.540   1.432   1.641

   1.539   1.546   4.707   1.486   1.484   4.650   1.522   1.464   5.962   1.539

   1.926   1.638   1.538   2.006   3.496   1.481   2.567   2.540   1.519   2.632

   3.790   1.533   1.924   0.967   1.529   1.940   5.411   1.533   1.908   5.300

   1.534   1.925   0.989   1.103   2.473   2.613   1.103   2.535   3.878   1.110

   1.885   3.694   1.114   1.726   1.467   1.099   1.924   4.798   1.097   1.929

   2.744   1.101   1.905   4.696   1.105   1.910   2.642   1.101   1.897   4.601

   1.105   1.861   2.577   1.097   1.928   5.157   1.098   1.918   3.089   1.099

   1.915   3.286   1.099   1.928   1.229   1.104   1.917   3.103   1.101   1.909

   1.033   1.101   1.965   1.208   1.110   1.739   5.492   1.098   1.918   3.187

   1.099   1.918   1.128   1.099   1.915   5.146   1.099   1.915   3.098   1.098

   1.918   3.095   1.098   1.916   5.152   1.099   1.920   1.134   1.101   1.915

   3.187   1.051   0.760   3.825
 GRADIENT          0.000  -0.000   0.000   7.202   0.000   0.000   6.612 -12.336
   0.000   2.606  21.950  15.645  -5.794   9.548   8.289  10.899 -47.512 -19.570

   1.404 -12.998   3.411  -2.461   0.985  -1.868  -1.383  -3.878  -1.376 -16.224

 -26.050   7.718  30.138  73.559  33.175   1.613  -2.452  -9.582  -9.447 -50.962

   4.387 -13.352 -32.970 -15.443  -3.200  52.972  24.031   2.346 -19.377   7.050

  -7.475   7.268  41.329  -9.714   2.423   0.741 -11.732  -1.157  -0.437 -10.400

  -5.401  -2.758 -12.281 -14.746  -0.988  -6.482  -1.087   2.317  -6.001  -1.318

  -3.075  -6.081   2.996   1.633  -7.389  -6.914  -0.500  -6.264  -0.669  -1.462

  -7.466  -4.958  -0.979  -5.428  -0.624   2.075  -5.302  -0.117  -1.073  -6.372

   0.642   1.672  -7.028  -0.183  -4.581  -6.940  -6.413  -0.300  -7.536   3.071

  -3.013  -3.022   4.995  -2.211  -6.172 -22.748   4.134  -5.633  -1.279   1.730

  -5.348  -1.912  -2.155  -5.834  -3.121   2.545  -6.775  -1.356  -2.314  -8.230

   0.082  -4.736  -4.487  -2.356  -0.642  -1.348  -4.822   2.828  -6.888  -0.970

   3.974 -10.842  12.230   0.139
       HoF         ACTUAL,  PREDICTED ENERGY CHANGE, RATIO
   114.7058925    -2.9279569          -5.9174337    0.4948018
     STEPSIZE USED IS  0.05000
 CALCULATED STEP
     0.002716 -0.002287 -0.003480 -0.003339  0.004015 -0.001562 -0.004877  0.005272
    -0.001396 -0.008658 -0.005291 -0.007283 -0.001575  0.000825 -0.006539  0.009675
    -0.002078  0.004759 -0.002655 -0.001779  0.001603 -0.001757 -0.000989  0.000152
     0.002307  0.006767 -0.004280 -0.006689 -0.006821 -0.003178 -0.003809  0.008163
     0.015081 -0.001274  0.000981 -0.002828  0.001994 -0.010391  0.000458 -0.003887
    -0.006934 -0.001991 -0.005469  0.009869  0.004123 -0.004450 -0.004926  0.001624
    -0.004514 -0.000319  0.008704  0.005682 -0.001553 -0.001381  0.005473  0.000624
    -0.000705  0.007765  0.002415  0.000649  0.010864  0.010260 -0.000574  0.002985
     0.000492 -0.001341  0.002987  0.000708  0.000764  0.003492 -0.002467 -0.001559
     0.005290  0.003717 -0.000349  0.004565  0.000065 -0.000040  0.006061  0.002701
     0.000436  0.002282 -0.000516 -0.001658  0.002745 -0.000761  0.000231  0.003434
    -0.000966 -0.001753  0.003772  0.000003  0.001570  0.004826  0.002858 -0.000980
     0.004054 -0.001712  0.000036  0.004191 -0.004489 -0.000517  0.008684  0.011325
     0.000820  0.003046  0.000187 -0.001584  0.003230  0.000782  0.000592  0.003056
     0.000804 -0.002497  0.003612  0.000313  0.000495  0.003096  0.000693 -0.000067
     0.002074  0.000403 -0.000793  0.003819  0.000342  0.001396  0.004726  0.000179
    -0.002592  0.009535 -0.006438 -0.000902
     NEW TRUST RADIUS =  0.05000
*REMARK   3 HET = Not identified; C 15 H 27 N 2      =    44 atoms res:    1
 PM7 CHARGE=+1 EF NOXYZ PRNT=2 PDBOUT COMPFG GRAPHF
 644020

  N(HETATM    1  N1  HET A   1)   0.00628012 +1   -0.0044424 +1   -0.0057949 +1
  N(HETATM    2  N2  HET A   1)   2.90762480 +1    0.7110622 +1   -0.2191173 +1     1     0     0
  C(HETATM    3  C1  HET A   1)   2.52649322 +1   55.5309223 +1   -0.1656655 +1     1     2     0
  C(HETATM    4  C2  HET A   1)   2.48616959 +1   60.4211356 +1  -67.3163655 +1     3     1     2
  C(HETATM    5  C3  HET A   1)   1.49321561 +1   85.3287564 +1   19.8314976 +1     1     2     3
  C(HETATM    6  C4  HET A   1)   1.54044217 +1   82.0741046 +1   94.0215857 +1     2     1     3
  C(HETATM    7  C5  HET A   1)   1.53906842 +1   88.5644546 +1  -90.3165612 +1     3     1     2
  C(HETATM    8  C6  HET A   1)   1.48559679 +1   85.0210685 +1  -93.6004598 +1     1     2     3
  C(HETATM    9  C7  HET A   1)   1.52172634 +1   83.8848856 +1  -18.4181757 +1     2     1     3
  C(HETATM   10  C8  HET A   1)   1.53893268 +1  110.3783636 +1   93.8339401 +1     5     1     2
  C(HETATM   11  C9  HET A   1)   1.53813030 +1  114.9078748 +1 -159.6798772 +1     6     2     1
  C(HETATM   12  C10 HET A   1)   1.48102715 +1  147.0734597 +1  145.5450954 +1     1     2     3
  C(HETATM   13  C11 HET A   1)   1.51926393 +1  150.8121468 +1 -142.8375047 +1     2     1     3
  C(HETATM   14  C12 HET A   1)   1.53254466 +1  110.2217062 +1   55.4318871 +1    10     5     1
  C(HETATM   15  C13 HET A   1)   1.52905544 +1  111.1439603 +1  -49.9740484 +1    11     6     2
  C(HETATM   16  C14 HET A   1)   1.53294066 +1  109.3416936 +1  -56.3471260 +1    14    10     5
  C(HETATM   17  C15 HET A   1)   1.53392566 +1  110.2658691 +1   56.6854087 +1    15    11     6
  H(HETATM   18  H1  HET A   1)   1.10291141 +1  141.6936060 +1  149.6948403 +1     3     1     2
  H(HETATM   19 1H2  HET A   1)   1.10268123 +1  145.2199825 +1 -137.8296175 +1     4     3     1
  H(HETATM   20  H3  HET A   1)   1.10970281 +1  108.0098312 +1 -148.3567129 +1     5     1     2
  H(HETATM   21  H4  HET A   1)   1.11411590 +1   98.9028829 +1   84.0483078 +1     6     2     1
  H(HETATM   22 1H5  HET A   1)   1.09907288 +1  110.2178256 +1  -85.0999377 +1     7     3     1
  H(HETATM   23 2H5  HET A   1)   1.09742527 +1  110.5327908 +1  157.2013833 +1     7     3     1
  H(HETATM   24 1H6  HET A   1)   1.10073947 +1  109.1503831 +1  -90.9141806 +1     8     1     2
  H(HETATM   25 2H6  HET A   1)   1.10455208 +1  109.4175387 +1  151.3759093 +1     8     1     2
  H(HETATM   26 1H7  HET A   1)   1.10092742 +1  108.6816526 +1  -96.4004591 +1     9     2     1
  H(HETATM   27 2H7  HET A   1)   1.10463050 +1  106.5991155 +1  147.6250130 +1     9     2     1
  H(HETATM   28 1H8  HET A   1)   1.09651795 +1  110.4781880 +1  -64.5471645 +1    10     5     1
  H(HETATM   29 2H8  HET A   1)   1.09777369 +1  109.8870790 +1  176.9748260 +1    10     5     1
  H(HETATM   30 1H9  HET A   1)   1.09901897 +1  109.7089101 +1 -171.7340951 +1    11     6     2
  H(HETATM   31 2H9  HET A   1)   1.09869976 +1  110.4544146 +1   70.4171162 +1    11     6     2
  H(HETATM   32 1H10 HET A   1)   1.10359791 +1  109.8316192 +1  177.7948284 +1    12     1     2
  H(HETATM   33 2H10 HET A   1)   1.10131532 +1  109.3602051 +1   59.1939832 +1    12     1     2
  H(HETATM   34 1H11 HET A   1)   1.10051790 +1  112.6059267 +1   69.2107205 +1    13     2     1
  H(HETATM   35 2H11 HET A   1)   1.11027597 +1   99.6552521 +1  -45.3337562 +1    13     2     1
  H(HETATM   36 1H12 HET A   1)   1.09818722 +1  109.9219228 +1 -177.3974137 +1    14    10     5
  H(HETATM   37 2H12 HET A   1)   1.09885686 +1  109.8803824 +1   64.6354761 +1    14    10     5
  H(HETATM   38 1H13 HET A   1)   1.09912062 +1  109.7102063 +1  -65.1507027 +1    15    11     6
  H(HETATM   39 2H13 HET A   1)   1.09943713 +1  109.7459108 +1  177.4779597 +1    15    11     6
  H(HETATM   40 1H14 HET A   1)   1.09826910 +1  109.8941286 +1  177.3304106 +1    16    14    10
  H(HETATM   41 2H14 HET A   1)   1.09754256 +1  109.7637114 +1  -64.7899419 +1    16    14    10
  H(HETATM   42 1H15 HET A   1)   1.09940778 +1  109.9969644 +1   64.9982637 +1    17    15    11
  H(HETATM   43 2H15 HET A   1)   1.10051784 +1  109.7170516 +1 -177.3931653 +1    17    15    11
  H(HETATM   44 2H2  HET A   1)   1.05086220 +1   43.5174985 +1 -140.8522873 +1     2     1     3

 XPARAM 
  1  1    0.0063  1  2   -0.0044  1  3   -0.0058  2  1    2.9076  2  2    0.0124
  2  3   -0.0038  3  1    2.5265  3  2    0.9692  3  3   -0.0029  4  1    2.4862
  4  2    1.0545  4  3    5.1083  5  1    1.4932  5  2    1.4893  5  3    0.3461
  6  1    1.5404  6  2    1.4325  6  3    1.6410  7  1    1.5391  7  2    1.5457
  7  3    4.7069  8  1    1.4856  8  2    1.4839  8  3    4.6495  9  1    1.5217
  9  2    1.4641  9  3    5.9617 10  1    1.5389 10  2    1.9265 10  3    1.6377
 11  1    1.5381 11  2    2.0055 11  3    3.4962 12  1    1.4810 12  2    2.5669
 12  3    2.5402 13  1    1.5193 13  2    2.6322 13  3    3.7902 14  1    1.5325
 14  2    1.9237 14  3    0.9675 15  1    1.5291 15  2    1.9398 15  3    5.4110
 16  1    1.5329 16  2    1.9084 16  3    5.2997 17  1    1.5339 17  2    1.9245
 17  3    0.9893 18  1    1.1029 18  2    2.4730 18  3    2.6127 19  1    1.1027
 19  2    2.5346 19  3    3.8776 20  1    1.1097 20  2    1.8851 20  3    3.6939
 21  1    1.1141 21  2    1.7262 21  3    1.4669 22  1    1.0991 22  2    1.9237
 22  3    4.7979 23  1    1.0974 23  2    1.9292 23  3    2.7437 24  1    1.1007
 24  2    1.9050 24  3    4.6964 25  1    1.1046 25  2    1.9097 25  3    2.6420
 26  1    1.1009 26  2    1.8969 26  3    4.6007 27  1    1.1046 27  2    1.8605
 27  3    2.5765 28  1    1.0965 28  2    1.9282 28  3    5.1566 29  1    1.0978
 29  2    1.9179 29  3    3.0888 30  1    1.0990 30  2    1.9148 30  3    3.2859
 31  1    1.0987 31  2    1.9278 31  3    1.2290 32  1    1.1036 32  2    1.9169
 32  3    3.1031 33  1    1.1013 33  2    1.9087 33  3    1.0331 34  1    1.1005
 34  2    1.9653 34  3    1.2080 35  1    1.1103 35  2    1.7393 35  3    5.4920
 36  1    1.0982 36  2    1.9185 36  3    3.1870 37  1    1.0989 37  2    1.9178
 37  3    1.1281 38  1    1.0991 38  2    1.9148 38  3    5.1461 39  1    1.0994
 39  2    1.9154 39  3    3.0976 40  1    1.0983 40  2    1.9180 40  3    3.0950
 41  1    1.0975 41  2    1.9157 41  3    5.1524 42  1    1.0994 42  2    1.9198
 42  3    1.1344 43  1    1.1005 43  2    1.9149 43  3    3.1871 44  1    1.0509
 44  2    0.7595 44  3    3.8248
 grad
       0.00004   -0.00002    0.00000    7.20198    0.00000    0.00000    6.61163  -12.33647
       0.00000    2.60583   21.94984   15.64527   -5.79368    9.54801    8.28941   10.89871
     -47.51237  -19.56999    1.40443  -12.99829    3.41085   -2.46104    0.98522   -1.86750
      -1.38266   -3.87770   -1.37581  -16.22410  -26.05048    7.71850   30.13791   73.55925
      33.17458    1.61301   -2.45187   -9.58199   -9.44679  -50.96201    4.38700  -13.35165
     -32.97018  -15.44267   -3.20006   52.97163   24.03105    2.34561  -19.37740    7.05034
      -7.47523    7.26750   41.32929   -9.71440    2.42325    0.74085  -11.73160   -1.15720
      -0.43720  -10.39986   -5.40144   -2.75778  -12.28071  -14.74582   -0.98804   -6.48166
      -1.08749    2.31656   -6.00075   -1.31829   -3.07508   -6.08086    2.99621    1.63274
      -7.38946   -6.91397   -0.50020   -6.26422   -0.66896   -1.46158   -7.46610   -4.95805
      -0.97856   -5.42798   -0.62372    2.07451   -5.30216   -0.11664   -1.07327   -6.37159
       0.64249    1.67203   -7.02812   -0.18338   -4.58132   -6.94019   -6.41339   -0.29978
      -7.53559    3.07083   -3.01345   -3.02232    4.99488   -2.21138   -6.17160  -22.74793
       4.13418   -5.63288   -1.27896    1.73007   -5.34817   -1.91162   -2.15456   -5.83386
      -3.12148    2.54496   -6.77463   -1.35633   -2.31370   -8.22960    0.08152   -4.73583
      -4.48659   -2.35579   -0.64213   -1.34793   -4.82236    2.82776   -6.88837   -0.96974
       3.97418  -10.84167   12.22952    0.13890
 CYCLE:     3 TIME:   0.023 TIME LEFT:  2.00D  GRAD.:   158.913 HEAT:  114.7059

          HESSIAN HAS  0 NEGATIVE EIGENVALUE(S)
  MIN SEARCH, CORRECT HESSIAN, TRYING PURE NR STEP
 LAMBDA THAT MINIMIZES ALONG ALL MODES =        0.000000000
 PURE NR-STEP HAS LENGTH   0.42791
 LAMBDA THAT MINIMIZES ALONG ALL MODES =      -31.184464215
 P-RFO-STEP   HAS LENGTH   0.36211
 LAMBDA THAT MINIMIZES ALONG ALL MODES =    -1551.622268577
 QA/TRIM-STEP HAS LENGTH   0.05000

  HEAT OF FORMATION        115.84673198097880    
 PARAMETERS        0.007  -0.011  -0.004   2.907   0.010  -0.001   2.521   0.983
  -0.001   2.481   1.041   5.092   1.493   1.481   0.343   1.541   1.444   1.654

   1.536   1.550   4.707   1.485   1.480   4.653   1.521   1.471   5.961   1.539

   1.927   1.638   1.532   1.993   3.493   1.479   2.564   2.542   1.519   2.639

   3.790   1.534   1.926   0.976   1.528   1.937   5.403   1.529   1.913   5.302

   1.532   1.923   0.982   1.108   2.471   2.612   1.108   2.535   3.878   1.115

   1.888   3.696   1.122   1.734   1.468   1.102   1.924   4.797   1.100   1.929

   2.746   1.103   1.903   4.696   1.108   1.913   2.642   1.104   1.897   4.601

   1.109   1.862   2.578   1.099   1.928   5.155   1.100   1.917   3.090   1.102

   1.914   3.285   1.102   1.927   1.232   1.107   1.920   3.104   1.105   1.906

   1.035   1.103   1.961   1.209   1.115   1.751   5.491   1.101   1.919   3.186

   1.101   1.918   1.129   1.102   1.916   5.145   1.102   1.916   3.099   1.101

   1.918   3.097   1.099   1.917   5.153   1.101   1.920   1.134   1.104   1.914

   3.184   1.057   0.752   3.825
 GRADIENT          0.000  -0.000   0.000  64.624   0.000   0.000 -37.882 138.881
   0.000  -2.565 -92.779-100.179   6.277 -34.398 -21.554 -24.490  82.070  33.429

   0.492  -0.306  -3.759   9.824 -42.451  17.872  -9.172  29.183 -20.021  -7.356

   1.910   4.131 -26.201 -75.160 -41.021  -2.739  -7.749   3.586   6.942  43.888

  -7.228  -5.593  -7.298   2.289 -16.930 -75.824   5.098  -5.061  -4.825   6.037

   9.171 -27.681 -33.378  -5.862  -1.634   2.877  -8.237  -0.870   4.400 -10.151

  -2.351   1.433  -3.788 -15.801   3.717  -5.969  -0.587   4.196  -2.648  -3.044

   0.609  -6.505   3.689   2.448  -9.504  -3.311  -5.627  -2.265  -1.759  -2.836

  -2.131  -6.609   2.066  -3.822  -0.869   1.241  -4.219  -0.189  -1.423  -5.135

   0.705   2.482  -4.845  -0.774  -3.961  -5.679  -5.114   1.667  -3.661   1.549

   0.002  -6.870   8.726   2.461  -7.774 -17.158  -1.305  -4.169  -1.107   1.596

  -3.994  -1.406  -2.279  -4.670  -2.713   3.039  -4.791  -1.342  -1.865  -4.890

  -1.073  -2.240  -4.512  -1.195   1.266  -5.057  -1.287  -2.522  -8.711   1.106

   7.114  -6.642  10.748  -0.129
       HoF         ACTUAL,  PREDICTED ENERGY CHANGE, RATIO
   115.8467320     1.1408394          -4.7732915   -0.2390048
 UNACCEPTABLE RATIO, REJECTING STEP, REDUCING DMAX TO 0.0250
  MIN SEARCH, CORRECT HESSIAN, TRYING PURE NR STEP
 LAMBDA THAT MINIMIZES ALONG ALL MODES =        0.000000000
 PURE NR-STEP HAS LENGTH   0.42791
 LAMBDA THAT MINIMIZES ALONG ALL MODES =      -31.184464215
 P-RFO-STEP   HAS LENGTH   0.36211
 LAMBDA THAT MINIMIZES ALONG ALL MODES =    -3560.467559445
 QA/TRIM-STEP HAS LENGTH   0.02500

  HEAT OF FORMATION        113.51995672821067    
 PARAMETERS        0.007  -0.008  -0.005   2.908   0.011  -0.002   2.524   0.975
  -0.002   2.484   1.048   5.101   1.493   1.485   0.345   1.540   1.439   1.647

   1.538   1.548   4.707   1.485   1.482   4.651   1.521   1.467   5.962   1.539

   1.927   1.638   1.534   1.998   3.494   1.480   2.565   2.542   1.519   2.637

   3.790   1.534   1.926   0.972   1.529   1.937   5.407   1.531   1.911   5.300

   1.533   1.924   0.985   1.105   2.472   2.613   1.105   2.535   3.878   1.112

   1.886   3.695   1.118   1.730   1.467   1.100   1.924   4.797   1.099   1.929

   2.745   1.102   1.904   4.696   1.106   1.911   2.642   1.102   1.897   4.601

   1.107   1.861   2.577   1.098   1.928   5.156   1.099   1.918   3.089   1.100

   1.914   3.286   1.100   1.927   1.230   1.105   1.918   3.103   1.103   1.907

   1.034   1.102   1.963   1.208   1.112   1.745   5.491   1.099   1.919   3.187

   1.100   1.918   1.129   1.100   1.916   5.145   1.101   1.915   3.098   1.100

   1.918   3.096   1.098   1.916   5.153   1.100   1.920   1.134   1.102   1.915

   3.186   1.054   0.756   3.825
 GRADIENT          0.000  -0.000   0.000  37.508   0.000   0.000 -13.600  63.515
   0.000   0.501 -31.529 -43.315   1.306 -13.028  -8.343 -11.371  27.898   9.233

   0.776  -5.786  -0.924   2.778 -17.359   6.371  -5.514  12.411 -10.306  -7.186

  -3.214   1.855  -4.521 -16.500 -10.455  -1.843  -2.496  -0.404  -0.239   5.916

  -2.672  -7.483 -10.916  -6.408 -11.467 -25.478  13.585  -2.277  -8.458   2.016

   2.711 -14.364  -3.396  -7.909   0.499   1.759  -9.797  -1.053   1.892 -10.256

  -3.959  -0.761  -8.381 -15.450   1.323  -6.123  -0.917   3.112  -4.322  -2.190

  -1.245  -6.270   3.359   2.088  -8.238  -5.330  -2.724  -4.431  -1.176  -2.067

  -4.988  -5.797   0.479  -4.601  -0.676   1.674  -4.746  -0.081  -1.234  -5.770

   0.587   2.068  -5.957  -0.585  -4.236  -6.154  -5.933   0.454  -5.356   2.137

  -1.199  -5.800   7.438   0.820  -7.729 -19.675   0.891  -4.928  -1.145   1.692

  -4.696  -1.643  -2.188  -5.273  -2.891   2.854  -5.774  -1.337  -2.073  -6.184

  -0.755  -3.078  -4.254  -1.928   0.090  -3.821  -2.664  -0.442  -8.532   0.517

   6.266  -8.879  11.356   0.016
       HoF         ACTUAL,  PREDICTED ENERGY CHANGE, RATIO
   113.5199567    -1.1859358          -2.7057668    0.4382993
     STEPSIZE USED IS  0.02500
 CALCULATED STEP
     0.000452 -0.003231  0.001135 -0.000030 -0.001265  0.001498 -0.002769  0.006260
     0.000918 -0.002125 -0.006617 -0.006880  0.000185 -0.004146 -0.001144 -0.000560
     0.006275  0.006081 -0.001213  0.002536  0.000012 -0.000215 -0.001538  0.001478
    -0.000581  0.003093 -0.000135  0.000435  0.000769  0.000066 -0.003833 -0.007765
    -0.002469 -0.001141 -0.001429  0.001310 -0.000033  0.004732 -0.000143  0.001006
     0.001839  0.004120 -0.000024 -0.002771 -0.004158 -0.001584  0.002834  0.000724
    -0.000596 -0.000900 -0.004025  0.002237 -0.001119 -0.000131  0.002508  0.000107
     0.000227  0.002507  0.001209  0.000923  0.003446  0.003518  0.000429  0.001252
     0.000231 -0.000420  0.001260 -0.000010  0.000974  0.001242 -0.000922 -0.000345
     0.001649  0.001548  0.000054  0.001502 -0.000003  0.000407  0.001945  0.000888
     0.000502  0.001008  0.000042 -0.000474  0.001067 -0.000348  0.000404  0.001345
    -0.000436 -0.000353  0.001540 -0.000440  0.001289  0.001521  0.001404  0.000249
     0.001590 -0.001280  0.000731  0.001081 -0.002197  0.000338  0.002082  0.005687
    -0.000477  0.001168  0.000007 -0.000388  0.001161 -0.000054  0.000663  0.001178
     0.000703 -0.000661  0.001432  0.000045  0.000685  0.001564 -0.000169  0.001095
     0.000714  0.000581  0.000340  0.000682  0.000353 -0.000148  0.001830 -0.000228
    -0.001265  0.002962 -0.003315  0.000190
     NEW TRUST RADIUS =  0.02500
*REMARK   3 HET = Not identified; C 15 H 27 N 2      =    44 atoms res:    1
 PM7 CHARGE=+1 EF NOXYZ PRNT=2 PDBOUT COMPFG GRAPHF
 644020

  N(HETATM    1  N1  HET A   1)   0.00673235 +1   -0.0076737 +1   -0.0046594 +1
  N(HETATM    2  N2  HET A   1)   2.90759488 +1    0.6385583 +1   -0.1332605 +1     1     0     0
  C(HETATM    3  C1  HET A   1)   2.52372407 +1   55.8896046 +1   -0.1130648 +1     1     2     0
  C(HETATM    4  C2  HET A   1)   2.48404492 +1   60.0419946 +1  -67.7105535 +1     3     1     2
  C(HETATM    5  C3  HET A   1)   1.49340078 +1   85.0912115 +1   19.7659559 +1     1     2     3
  C(HETATM    6  C4  HET A   1)   1.53988199 +1   82.4336623 +1   94.3700172 +1     2     1     3
  C(HETATM    7  C5  HET A   1)   1.53785536 +1   88.7097780 +1  -90.3158644 +1     3     1     2
  C(HETATM    8  C6  HET A   1)   1.48538196 +1   84.9329614 +1  -93.5157962 +1     1     2     3
  C(HETATM    9  C7  HET A   1)   1.52114488 +1   84.0621070 +1  -18.4259301 +1     2     1     3
  C(HETATM   10  C8  HET A   1)   1.53936764 +1  110.4224437 +1   93.8376993 +1     5     1     2
  C(HETATM   11  C9  HET A   1)   1.53429732 +1  114.4629857 +1 -159.8213585 +1     6     2     1
  C(HETATM   12  C10 HET A   1)   1.47988576 +1  146.9916084 +1  145.6201458 +1     1     2     3
  C(HETATM   13  C11 HET A   1)   1.51923110 +1  151.0832710 +1 -142.8457109 +1     2     1     3
  C(HETATM   14  C12 HET A   1)   1.53355048 +1  110.3270548 +1   55.6679278 +1    10     5     1
  C(HETATM   15  C13 HET A   1)   1.52903094 +1  110.9851831 +1  -50.2122636 +1    11     6     2
  C(HETATM   16  C14 HET A   1)   1.53135660 +1  109.5040936 +1  -56.3056288 +1    14    10     5
  C(HETATM   17  C15 HET A   1)   1.53332925 +1  110.2143263 +1   56.4547750 +1    15    11     6
  H(HETATM   18  H1  HET A   1)   1.10514883 +1  141.6295031 +1  149.6873263 +1     3     1     2
  H(HETATM   19 1H2  HET A   1)   1.10518944 +1  145.2261397 +1 -137.8166242 +1     4     3     1
  H(HETATM   20  H3  HET A   1)   1.11221031 +1  108.0791100 +1 -148.3038149 +1     5     1     2
  H(HETATM   21  H4  HET A   1)   1.11756145 +1   99.1044409 +1   84.0728899 +1     6     2     1
  H(HETATM   22 1H5  HET A   1)   1.10032525 +1  110.2310706 +1  -85.1239846 +1     7     3     1
  H(HETATM   23 2H5  HET A   1)   1.09868558 +1  110.5322151 +1  157.2571669 +1     7     3     1
  H(HETATM   24 1H6  HET A   1)   1.10198155 +1  109.0975328 +1  -90.9339198 +1     8     1     2
  H(HETATM   25 2H6  HET A   1)   1.10620089 +1  109.5062242 +1  151.3790120 +1     8     1     2
  H(HETATM   26 1H7  HET A   1)   1.10242928 +1  108.6815074 +1  -96.3771601 +1     9     2     1
  H(HETATM   27 2H7  HET A   1)   1.10657573 +1  106.6500150 +1  147.6537575 +1     9     2     1
  H(HETATM   28 1H8  HET A   1)   1.09752603 +1  110.4805962 +1  -64.5743326 +1    10     5     1
  H(HETATM   29 2H8  HET A   1)   1.09884040 +1  109.8671408 +1  176.9980021 +1    10     5     1
  H(HETATM   30 1H9  HET A   1)   1.10036391 +1  109.6839160 +1 -171.7543063 +1    11     6     2
  H(HETATM   31 2H9  HET A   1)   1.10023979 +1  110.4292199 +1   70.4909576 +1    11     6     2
  H(HETATM   32 1H10 HET A   1)   1.10511868 +1  109.9120890 +1  177.8090746 +1    12     1     2
  H(HETATM   33 2H10 HET A   1)   1.10290567 +1  109.2868664 +1   59.2358750 +1    12     1     2
  H(HETATM   34 1H11 HET A   1)   1.10159888 +1  112.4800738 +1   69.2300683 +1    13     2     1
  H(HETATM   35 2H11 HET A   1)   1.11235829 +1   99.9811102 +1  -45.3610582 +1    13     2     1
  H(HETATM   36 1H12 HET A   1)   1.09935531 +1  109.9222962 +1 -177.4196720 +1    14    10     5
  H(HETATM   37 2H12 HET A   1)   1.10001790 +1  109.8772759 +1   64.6734727 +1    14    10     5
  H(HETATM   38 1H13 HET A   1)   1.10029881 +1  109.7504795 +1  -65.1885719 +1    15    11     6
  H(HETATM   39 2H13 HET A   1)   1.10086876 +1  109.7485115 +1  177.5172066 +1    15    11     6
  H(HETATM   40 1H14 HET A   1)   1.09983296 +1  109.8844241 +1  177.3931530 +1    16    14    10
  H(HETATM   41 2H14 HET A   1)   1.09825658 +1  109.7970117 +1  -64.7704499 +1    16    14    10
  H(HETATM   42 1H15 HET A   1)   1.10008957 +1  110.0172149 +1   64.9898109 +1    17    15    11
  H(HETATM   43 2H15 HET A   1)   1.10234773 +1  109.7039903 +1 -177.4656673 +1    17    15    11
  H(HETATM   44 2H2  HET A   1)   1.05382408 +1   43.3275827 +1 -140.8413750 +1     2     1     3

 XPARAM 
  1  1    0.0067  1  2   -0.0077  1  3   -0.0047  2  1    2.9076  2  2    0.0111
  2  3   -0.0023  3  1    2.5237  3  2    0.9755  3  3   -0.0020  4  1    2.4840
  4  2    1.0479  4  3    5.1014  5  1    1.4934  5  2    1.4851  5  3    0.3450
  6  1    1.5399  6  2    1.4387  6  3    1.6471  7  1    1.5379  7  2    1.5483
  7  3    4.7069  8  1    1.4854  8  2    1.4824  8  3    4.6510  9  1    1.5211
  9  2    1.4672  9  3    5.9616 10  1    1.5394 10  2    1.9272 10  3    1.6378
 11  1    1.5343 11  2    1.9978 11  3    3.4938 12  1    1.4799 12  2    2.5655
 12  3    2.5416 13  1    1.5192 13  2    2.6369 13  3    3.7901 14  1    1.5336
 14  2    1.9256 14  3    0.9716 15  1    1.5290 15  2    1.9371 15  3    5.4068
 16  1    1.5314 16  2    1.9112 16  3    5.3005 17  1    1.5333 17  2    1.9236
 17  3    0.9853 18  1    1.1051 18  2    2.4719 18  3    2.6125 19  1    1.1052
 19  2    2.5347 19  3    3.8778 20  1    1.1122 20  2    1.8863 20  3    3.6948
 21  1    1.1176 21  2    1.7297 21  3    1.4673 22  1    1.1003 22  2    1.9239
 22  3    4.7975 23  1    1.0987 23  2    1.9292 23  3    2.7447 24  1    1.1020
 24  2    1.9041 24  3    4.6961 25  1    1.1062 25  2    1.9112 25  3    2.6421
 26  1    1.1024 26  2    1.8969 26  3    4.6011 27  1    1.1066 27  2    1.8614
 27  3    2.5770 28  1    1.0975 28  2    1.9283 28  3    5.1562 29  1    1.0988
 29  2    1.9175 29  3    3.0892 30  1    1.1004 30  2    1.9143 30  3    3.2855
 31  1    1.1002 31  2    1.9274 31  3    1.2303 32  1    1.1051 32  2    1.9183
 32  3    3.1034 33  1    1.1029 33  2    1.9074 33  3    1.0339 34  1    1.1016
 34  2    1.9631 34  3    1.2083 35  1    1.1124 35  2    1.7450 35  3    5.4915
 36  1    1.0994 36  2    1.9185 36  3    3.1866 37  1    1.1000 37  2    1.9177
 37  3    1.1288 38  1    1.1003 38  2    1.9155 38  3    5.1454 39  1    1.1009
 39  2    1.9155 39  3    3.0983 40  1    1.0998 40  2    1.9178 40  3    3.0961
 41  1    1.0983 41  2    1.9163 41  3    5.1527 42  1    1.1001 42  2    1.9202
 42  3    1.1343 43  1    1.1023 43  2    1.9147 43  3    3.1858 44  1    1.0538
 44  2    0.7562 44  3    3.8250
 grad
       0.00004   -0.00002    0.00000   37.50829    0.00000    0.00000  -13.59951   63.51452
       0.00000    0.50062  -31.52898  -43.31528    1.30617  -13.02821   -8.34258  -11.37094
      27.89753    9.23328    0.77642   -5.78593   -0.92352    2.77819  -17.35865    6.37141
      -5.51407   12.41130  -10.30605   -7.18576   -3.21431    1.85525   -4.52090  -16.49986
     -10.45531   -1.84272   -2.49619   -0.40351   -0.23945    5.91637   -2.67160   -7.48256
     -10.91648   -6.40842  -11.46687  -25.47777   13.58506   -2.27733   -8.45771    2.01592
       2.71113  -14.36442   -3.39611   -7.90929    0.49884    1.75950   -9.79669   -1.05349
       1.89239  -10.25634   -3.95903   -0.76128   -8.38092  -15.44990    1.32330   -6.12327
      -0.91714    3.11175   -4.32210   -2.18996   -1.24476   -6.26956    3.35930    2.08762
      -8.23784   -5.33031   -2.72430   -4.43072   -1.17550   -2.06705   -4.98838   -5.79697
       0.47882   -4.60051   -0.67595    1.67379   -4.74555   -0.08091   -1.23359   -5.77003
       0.58710    2.06791   -5.95688   -0.58469   -4.23599   -6.15436   -5.93339    0.45440
      -5.35556    2.13707   -1.19904   -5.79952    7.43841    0.82004   -7.72862  -19.67499
       0.89075   -4.92798   -1.14514    1.69222   -4.69585   -1.64334   -2.18755   -5.27293
      -2.89131    2.85421   -5.77449   -1.33653   -2.07302   -6.18389   -0.75472   -3.07755
      -4.25403   -1.92783    0.09048   -3.82077   -2.66434   -0.44230   -8.53164    0.51732
       6.26648   -8.87871   11.35566    0.01635
 CYCLE:     4 TIME:   0.031 TIME LEFT:  2.00D  GRAD.:   121.103 HEAT:  113.5200

          HESSIAN HAS  0 NEGATIVE EIGENVALUE(S)
  MIN SEARCH, CORRECT HESSIAN, TRYING PURE NR STEP
 LAMBDA THAT MINIMIZES ALONG ALL MODES =        0.000000000
 PURE NR-STEP HAS LENGTH   0.23902
 LAMBDA THAT MINIMIZES ALONG ALL MODES =      -13.915942144
 P-RFO-STEP   HAS LENGTH   0.22397
 LAMBDA THAT MINIMIZES ALONG ALL MODES =    -2430.690674799
 QA/TRIM-STEP HAS LENGTH   0.02500

  HEAT OF FORMATION        112.34750683333550    
 PARAMETERS        0.009  -0.011  -0.006   2.902   0.015  -0.004   2.525   0.967
  -0.003   2.483   1.051   5.108   1.493   1.487   0.346   1.541   1.436   1.647

   1.537   1.549   4.706   1.484   1.483   4.649   1.521   1.462   5.964   1.540

   1.929   1.637   1.531   1.995   3.494   1.477   2.565   2.543   1.517   2.637

   3.791   1.535   1.931   0.975   1.530   1.938   5.400   1.530   1.912   5.300

   1.531   1.927   0.983   1.107   2.471   2.612   1.108   2.534   3.878   1.115

   1.887   3.695   1.121   1.735   1.467   1.102   1.923   4.796   1.100   1.929

   2.745   1.104   1.902   4.695   1.108   1.913   2.643   1.104   1.896   4.602

   1.108   1.863   2.577   1.099   1.927   5.155   1.100   1.917   3.090   1.102

   1.913   3.285   1.102   1.927   1.232   1.107   1.920   3.103   1.104   1.906

   1.034   1.103   1.960   1.208   1.115   1.752   5.491   1.101   1.918   3.186

   1.101   1.918   1.130   1.102   1.916   5.144   1.102   1.915   3.099   1.102

   1.917   3.097   1.099   1.916   5.153   1.101   1.921   1.134   1.105   1.914

   3.183   1.057   0.751   3.825
 GRADIENT          0.000  -0.000   0.000   1.258   0.000   0.000   2.935 -31.506
   0.000   3.516  -4.742  11.976   3.774  -6.305 -10.945  -5.055   0.157  -8.378

  -1.649  -3.473   0.135  -1.118  -4.622   1.130   2.021 -17.362   4.829   8.588

  26.652  -9.954 -11.502 -18.742 -16.741  -8.994   4.489   9.226  -0.648  13.762

  -2.694   0.709  22.196  -1.560  -8.356 -28.361   2.288  -6.676   6.156 -11.292

   1.563 -10.378 -12.039  -8.317   2.910   0.402  -9.046  -0.332   0.030  -7.125

  -4.918  -2.415  -8.372 -13.368  -0.313  -4.608  -1.567   1.945  -3.869  -2.208

  -1.873  -5.117   2.795   2.075  -5.597  -6.274  -0.769  -5.379  -0.053  -0.673

  -6.231  -4.058  -1.976  -3.719  -0.787   1.366  -4.121   0.244  -1.529  -5.233

   0.165   2.156  -4.831  -1.275  -3.386  -4.706  -6.087   0.199  -3.437   1.055

   0.234  -5.024   6.956   0.262  -7.260 -17.789  -0.692  -4.196  -0.985   1.685

  -3.976  -1.422  -2.091  -4.565  -2.487   2.970  -4.829  -1.196  -1.958  -3.600

  -2.066  -0.972  -3.177  -2.332  -0.071  -4.541  -1.604  -1.992  -6.764  -0.050

   4.935  -7.462  10.055   0.045
       HoF         ACTUAL,  PREDICTED ENERGY CHANGE, RATIO
   112.3475068    -1.1724499          -1.9251224    0.6090262
     STEPSIZE USED IS  0.02500
 CALCULATED STEP
     0.001916 -0.003005 -0.001536 -0.006065  0.003405 -0.001449  0.001531 -0.008687
    -0.000709 -0.000720  0.002995  0.006463 -0.000683  0.001873  0.001140  0.000776
    -0.002554 -0.000043 -0.001353  0.000644 -0.000577 -0.001101  0.000982 -0.001652
     0.000335 -0.004918  0.001988  0.001017  0.001903 -0.000562 -0.003144 -0.002712
     0.000637 -0.002568 -0.000870  0.001115 -0.002208  0.000482  0.000932  0.001129
     0.004945  0.003785  0.001347  0.000745 -0.006551 -0.001433  0.001149 -0.000467
    -0.001870  0.003582 -0.001834  0.002124 -0.001098 -0.000438  0.002693 -0.000406
    -0.000281  0.002970  0.000909  0.000583  0.003023  0.005233 -0.000241  0.001572
    -0.000586 -0.001115  0.001165  0.000064  0.000745  0.001575 -0.002140 -0.000798
     0.002122  0.001631  0.000644  0.001290 -0.000591  0.000660  0.001591  0.001421
     0.000014  0.001138 -0.000797 -0.000752  0.001157 -0.000660  0.000434  0.001511
    -0.000914 -0.000784  0.001620 -0.000181  0.001678  0.001638  0.001618 -0.000037
     0.001533 -0.001209  0.000609  0.001214 -0.002931 -0.000128  0.002174  0.006519
    -0.000692  0.001242 -0.000261 -0.000714  0.001153  0.000293  0.000818  0.001348
     0.000071 -0.001138  0.001556 -0.000176  0.000803  0.001765 -0.000463  0.001325
     0.000914 -0.000221  0.000103  0.000602  0.000807 -0.000126  0.002273 -0.000789
    -0.002417  0.003384 -0.005118 -0.000281
     NEW TRUST RADIUS =  0.03536
*REMARK   3 HET = Not identified; C 15 H 27 N 2      =    44 atoms res:    1
 PM7 CHARGE=+1 EF NOXYZ PRNT=2 PDBOUT COMPFG GRAPHF
 644020

  N(HETATM    1  N1  HET A   1)   0.00864872 +1   -0.0106785 +1   -0.0061951 +1
  N(HETATM    2  N2  HET A   1)   2.90152940 +1    0.8336432 +1   -0.2163049 +1     1     0     0
  C(HETATM    3  C1  HET A   1)   2.52525487 +1   55.3918880 +1   -0.1536745 +1     1     2     0
  C(HETATM    4  C2  HET A   1)   2.48332514 +1   60.2136160 +1  -67.3402452 +1     3     1     2
  C(HETATM    5  C3  HET A   1)   1.49271745 +1   85.1985278 +1   19.8312563 +1     1     2     3
  C(HETATM    6  C4  HET A   1)   1.54065829 +1   82.2873453 +1   94.3675265 +1     2     1     3
  C(HETATM    7  C5  HET A   1)   1.53650252 +1   88.7466872 +1  -90.3489093 +1     3     1     2
  C(HETATM    8  C6  HET A   1)   1.48428131 +1   84.9892252 +1  -93.6104384 +1     1     2     3
  C(HETATM    9  C7  HET A   1)   1.52147972 +1   83.7803039 +1  -18.3120070 +1     2     1     3
  C(HETATM   10  C8  HET A   1)   1.54038422 +1  110.5314706 +1   93.8054788 +1     5     1     2
  C(HETATM   11  C9  HET A   1)   1.53115311 +1  114.3076265 +1 -159.7848785 +1     6     2     1
  C(HETATM   12  C10 HET A   1)   1.47731747 +1  146.9417831 +1  145.6840379 +1     1     2     3
  C(HETATM   13  C11 HET A   1)   1.51702320 +1  151.1109122 +1 -142.7922873 +1     2     1     3
  C(HETATM   14  C12 HET A   1)   1.53467939 +1  110.6103584 +1   55.8847828 +1    10     5     1
  C(HETATM   15  C13 HET A   1)   1.53037825 +1  111.0278774 +1  -50.5876069 +1    11     6     2
  C(HETATM   16  C14 HET A   1)   1.52992334 +1  109.5699104 +1  -56.3323974 +1    14    10     5
  C(HETATM   17  C15 HET A   1)   1.53145956 +1  110.4195571 +1   56.3497201 +1    15    11     6
  H(HETATM   18  H1  HET A   1)   1.10727277 +1  141.5665932 +1  149.6622586 +1     3     1     2
  H(HETATM   19 1H2  HET A   1)   1.10788292 +1  145.2028522 +1 -137.8327193 +1     4     3     1
  H(HETATM   20  H3  HET A   1)   1.11518019 +1  108.1312203 +1 -148.2703891 +1     5     1     2
  H(HETATM   21  H4  HET A   1)   1.12058411 +1   99.4042909 +1   84.0590722 +1     6     2     1
  H(HETATM   22 1H5  HET A   1)   1.10189719 +1  110.1974749 +1  -85.1878544 +1     7     3     1
  H(HETATM   23 2H5  HET A   1)   1.09985016 +1  110.5359062 +1  157.2998777 +1     7     3     1
  H(HETATM   24 1H6  HET A   1)   1.10355669 +1  108.9749444 +1  -90.9796620 +1     8     1     2
  H(HETATM   25 2H6  HET A   1)   1.10832305 +1  109.5996744 +1  151.4159116 +1     8     1     2
  H(HETATM   26 1H7  HET A   1)   1.10371884 +1  108.6476345 +1  -96.3393472 +1     9     2     1
  H(HETATM   27 2H7  HET A   1)   1.10816657 +1  106.7314118 +1  147.6545815 +1     9     2     1
  H(HETATM   28 1H8  HET A   1)   1.09866427 +1  110.4349273 +1  -64.6174081 +1    10     5     1
  H(HETATM   29 2H8  HET A   1)   1.09999746 +1  109.8293104 +1  177.0228771 +1    10     5     1
  H(HETATM   30 1H9  HET A   1)   1.10187464 +1  109.6315533 +1 -171.7992275 +1    11     6     2
  H(HETATM   31 2H9  HET A   1)   1.10185944 +1  110.4188500 +1   70.5871136 +1    11     6     2
  H(HETATM   32 1H10 HET A   1)   1.10675705 +1  110.0048168 +1  177.8069281 +1    12     1     2
  H(HETATM   33 2H10 HET A   1)   1.10443911 +1  109.2175916 +1   59.2707607 +1    12     1     2
  H(HETATM   34 1H11 HET A   1)   1.10281325 +1  112.3121400 +1   69.2227130 +1    13     2     1
  H(HETATM   35 2H11 HET A   1)   1.11453220 +1  100.3546362 +1  -45.4006876 +1    13     2     1
  H(HETATM   36 1H12 HET A   1)   1.10059781 +1  109.9073602 +1 -177.4605847 +1    14    10     5
  H(HETATM   37 2H12 HET A   1)   1.10117125 +1  109.8940820 +1   64.7203493 +1    14    10     5
  H(HETATM   38 1H13 HET A   1)   1.10164645 +1  109.7545676 +1  -65.2538029 +1    15    11     6
  H(HETATM   39 2H13 HET A   1)   1.10242484 +1  109.7384154 +1  177.5632357 +1    15    11     6
  H(HETATM   40 1H14 HET A   1)   1.10159760 +1  109.8578808 +1  177.4690916 +1    16    14    10
  H(HETATM   41 2H14 HET A   1)   1.09917025 +1  109.7843572 +1  -64.7645731 +1    16    14    10
  H(HETATM   42 1H15 HET A   1)   1.10069154 +1  110.0634722 +1   64.9825658 +1    17    15    11
  H(HETATM   43 2H15 HET A   1)   1.10462083 +1  109.6587819 +1 -177.6041270 +1    17    15    11
  H(HETATM   44 2H2  HET A   1)   1.05720797 +1   43.0343402 +1 -140.8574980 +1     2     1     3

 XPARAM 
  1  1    0.0086  1  2   -0.0107  1  3   -0.0062  2  1    2.9015  2  2    0.0145
  2  3   -0.0038  3  1    2.5253  3  2    0.9668  3  3   -0.0027  4  1    2.4833
  4  2    1.0509  4  3    5.1079  5  1    1.4927  5  2    1.4870  5  3    0.3461
  6  1    1.5407  6  2    1.4362  6  3    1.6470  7  1    1.5365  7  2    1.5489
  7  3    4.7063  8  1    1.4843  8  2    1.4833  8  3    4.6494  9  1    1.5215
  9  2    1.4622  9  3    5.9636 10  1    1.5404 10  2    1.9291 10  3    1.6372
 11  1    1.5312 11  2    1.9950 11  3    3.4944 12  1    1.4773 12  2    2.5646
 12  3    2.5427 13  1    1.5170 13  2    2.6374 13  3    3.7910 14  1    1.5347
 14  2    1.9305 14  3    0.9754 15  1    1.5304 15  2    1.9378 15  3    5.4003
 16  1    1.5299 16  2    1.9124 16  3    5.3000 17  1    1.5315 17  2    1.9272
 17  3    0.9835 18  1    1.1073 18  2    2.4708 18  3    2.6121 19  1    1.1079
 19  2    2.5343 19  3    3.8776 20  1    1.1152 20  2    1.8872 20  3    3.6954
 21  1    1.1206 21  2    1.7349 21  3    1.4671 22  1    1.1019 22  2    1.9233
 22  3    4.7964 23  1    1.0999 23  2    1.9292 23  3    2.7454 24  1    1.1036
 24  2    1.9020 24  3    4.6953 25  1    1.1083 25  2    1.9129 25  3    2.6427
 26  1    1.1037 26  2    1.8963 26  3    4.6017 27  1    1.1082 27  2    1.8628
 27  3    2.5771 28  1    1.0987 28  2    1.9275 28  3    5.1554 29  1    1.1000
 29  2    1.9169 29  3    3.0896 30  1    1.1019 30  2    1.9134 30  3    3.2847
 31  1    1.1019 31  2    1.9272 31  3    1.2320 32  1    1.1068 32  2    1.9199
 32  3    3.1033 33  1    1.1044 33  2    1.9062 33  3    1.0345 34  1    1.1028
 34  2    1.9602 34  3    1.2082 35  1    1.1145 35  2    1.7515 35  3    5.4908
 36  1    1.1006 36  2    1.9182 36  3    3.1859 37  1    1.1012 37  2    1.9180
 37  3    1.1296 38  1    1.1016 38  2    1.9156 38  3    5.1443 39  1    1.1024
 39  2    1.9153 39  3    3.0991 40  1    1.1016 40  2    1.9174 40  3    3.0974
 41  1    1.0992 41  2    1.9161 41  3    5.1528 42  1    1.1007 42  2    1.9210
 42  3    1.1342 43  1    1.1046 43  2    1.9139 43  3    3.1834 44  1    1.0572
 44  2    0.7511 44  3    3.8248
 grad
       0.00004   -0.00002    0.00000    1.25834    0.00000    0.00000    2.93503  -31.50552
       0.00000    3.51565   -4.74183   11.97629    3.77441   -6.30500  -10.94497   -5.05494
       0.15726   -8.37777   -1.64913   -3.47343    0.13504   -1.11780   -4.62184    1.12988
       2.02097  -17.36229    4.82877    8.58787   26.65209   -9.95387  -11.50174  -18.74199
     -16.74088   -8.99435    4.48878    9.22621   -0.64791   13.76197   -2.69353    0.70901
      22.19559   -1.56040   -8.35599  -28.36082    2.28839   -6.67582    6.15593  -11.29195
       1.56259  -10.37805  -12.03916   -8.31661    2.91026    0.40221   -9.04644   -0.33230
       0.02968   -7.12527   -4.91798   -2.41537   -8.37193  -13.36801   -0.31291   -4.60772
      -1.56740    1.94465   -3.86905   -2.20808   -1.87334   -5.11652    2.79489    2.07505
      -5.59686   -6.27414   -0.76879   -5.37937   -0.05307   -0.67298   -6.23109   -4.05763
      -1.97553   -3.71887   -0.78736    1.36563   -4.12090    0.24426   -1.52881   -5.23284
       0.16464    2.15567   -4.83136   -1.27545   -3.38629   -4.70555   -6.08728    0.19919
      -3.43719    1.05550    0.23446   -5.02387    6.95561    0.26173   -7.26035  -17.78932
      -0.69222   -4.19631   -0.98502    1.68514   -3.97644   -1.42174   -2.09096   -4.56458
      -2.48685    2.97032   -4.82872   -1.19577   -1.95785   -3.59985   -2.06637   -0.97157
      -3.17726   -2.33151   -0.07062   -4.54059   -1.60353   -1.99192   -6.76438   -0.05016
       4.93452   -7.46181   10.05520    0.04526
 CYCLE:     5 TIME:   0.016 TIME LEFT:  2.00D  GRAD.:    86.269 HEAT:  112.3475

          HESSIAN HAS  0 NEGATIVE EIGENVALUE(S)
  MIN SEARCH, CORRECT HESSIAN, TRYING PURE NR STEP
 LAMBDA THAT MINIMIZES ALONG ALL MODES =        0.000000000
 PURE NR-STEP HAS LENGTH   0.20952
 LAMBDA THAT MINIMIZES ALONG ALL MODES =       -9.505658884
 P-RFO-STEP   HAS LENGTH   0.19999
 LAMBDA THAT MINIMIZES ALONG ALL MODES =    -1100.121118984
 QA/TRIM-STEP HAS LENGTH   0.03536

  HEAT OF FORMATION        111.86352678554249    
 PARAMETERS        0.010  -0.013  -0.009   2.895   0.017  -0.005   2.526   0.971
  -0.003   2.479   1.055   5.108   1.491   1.491   0.351   1.543   1.436   1.651

   1.534   1.549   4.705   1.482   1.485   4.647   1.520   1.464   5.962   1.537

   1.920   1.640   1.529   1.992   3.498   1.478   2.562   2.539   1.516   2.634

   3.792   1.534   1.925   0.978   1.530   1.941   5.394   1.529   1.908   5.303

   1.530   1.930   0.982   1.112   2.469   2.611   1.113   2.534   3.877   1.120

   1.890   3.697   1.126   1.745   1.467   1.104   1.923   4.794   1.102   1.930

   2.747   1.106   1.899   4.693   1.112   1.916   2.644   1.106   1.895   4.602

   1.112   1.865   2.578   1.100   1.927   5.154   1.102   1.916   3.091   1.105

   1.912   3.283   1.105   1.927   1.235   1.110   1.923   3.103   1.107   1.905

   1.035   1.105   1.955   1.208   1.119   1.764   5.490   1.103   1.918   3.184

   1.103   1.919   1.131   1.104   1.916   5.142   1.105   1.915   3.101   1.104

   1.918   3.099   1.101   1.916   5.153   1.103   1.922   1.135   1.108   1.913

   3.179   1.063   0.743   3.824
 GRADIENT          0.000  -0.000   0.000   5.100   0.000   0.000  19.425  -6.781
   0.000  -1.735  34.823  14.296 -14.819  20.216  29.422   0.583  -9.872  -2.337

  -0.113  -7.645  -0.850  -5.563   7.094 -10.469  -0.891 -10.215  -0.833 -38.343

 -77.810  42.097  -7.361  -3.810 -13.419   2.280 -26.382 -24.327  -2.271   9.030

  -1.090 -14.576 -78.687   0.412  -4.303 -13.502  -4.323   7.082 -28.632  41.231

  -1.160  -2.267  -9.092  -4.711   2.261   1.064  -5.639  -0.933  -0.708  -4.460

  -4.844  -2.274  -3.931 -12.033   0.827  -3.363  -1.646   1.428  -3.401  -1.555

  -2.446  -2.343   1.226   0.251  -2.805  -6.328  -0.320  -3.363  -0.449  -1.134

  -3.761  -3.979  -1.634  -2.650  -1.331   1.011  -3.051  -0.195  -1.532  -3.994

   0.119   2.315  -3.007  -1.503  -2.612  -5.926  -3.307   2.903  -6.059   3.556

  -4.126  -2.951   5.874  -0.509  -4.387 -15.657  -1.116  -2.768  -1.155   1.271

  -2.731  -1.364  -2.162  -3.367  -2.161   2.832  -3.324  -1.067  -1.733  -5.648

   0.069  -4.147  -5.608  -0.061   3.007  -3.491  -1.117  -2.445  -3.769  -0.869

   3.198  -4.859   8.989  -0.013
       HoF         ACTUAL,  PREDICTED ENERGY CHANGE, RATIO
   111.8635268    -0.4839800          -1.7509653    0.2764076
     STEPSIZE USED IS  0.03536
 CALCULATED STEP
     0.001576 -0.001917 -0.003085 -0.006168  0.002451 -0.001410  0.000381  0.004028
    -0.000747 -0.004298  0.004333  0.000444 -0.001992  0.004375  0.005298  0.002603
     0.000161  0.004080 -0.002003 -0.000408 -0.001094 -0.002281  0.002153 -0.002561
    -0.001465  0.001845 -0.001290 -0.003251 -0.009345  0.002745 -0.002265 -0.003063
     0.003928  0.000462 -0.002207 -0.003516 -0.000896 -0.002995  0.000912 -0.000656
    -0.005310  0.002584 -0.000227  0.002808 -0.006591 -0.000948 -0.003884  0.003387
    -0.001814  0.003230 -0.001314  0.004320 -0.002216 -0.000705  0.004736 -0.000499
    -0.000425  0.004791  0.002397  0.001452  0.005620  0.009667 -0.000236  0.002360
    -0.000193 -0.002061  0.001973  0.000808  0.001266  0.002651 -0.003253 -0.001867
     0.003639  0.003603  0.000823  0.002620 -0.000802  0.000660  0.003435  0.002594
     0.000848  0.001650 -0.000741 -0.001420  0.002068 -0.000898  0.000939  0.002704
    -0.001120 -0.001928  0.002815  0.000300  0.002785  0.002935  0.003403 -0.000470
     0.002426 -0.001464  0.000204  0.002568 -0.005009  0.000002  0.004209  0.012069
    -0.000622  0.002158 -0.000065 -0.001576  0.002259  0.000733  0.001516  0.002171
     0.000587 -0.002538  0.002627  0.000070  0.001446  0.002264  0.000302  0.001353
     0.001481  0.000226 -0.000233  0.002153  0.001249  0.000465  0.003524 -0.000548
    -0.004022  0.005348 -0.008419 -0.000529
     NEW TRUST RADIUS =  0.03536
*REMARK   3 HET = Not identified; C 15 H 27 N 2      =    44 atoms res:    1
 PM7 CHARGE=+1 EF NOXYZ PRNT=2 PDBOUT COMPFG GRAPHF
 644020

  N(HETATM    1  N1  HET A   1)   0.01022489 +1   -0.0125956 +1   -0.0092801 +1
  N(HETATM    2  N2  HET A   1)   2.89536140 +1    0.9740843 +1   -0.2971180 +1     1     0     0
  C(HETATM    3  C1  HET A   1)   2.52563604 +1   55.6226782 +1   -0.1964928 +1     1     2     0
  C(HETATM    4  C2  HET A   1)   2.47902706 +1   60.4619003 +1  -67.3147831 +1     3     1     2
  C(HETATM    5  C3  HET A   1)   1.49072557 +1   85.4492193 +1   20.1348203 +1     1     2     3
  C(HETATM    6  C4  HET A   1)   1.54326100 +1   82.2965701 +1   94.6012954 +1     2     1     3
  C(HETATM    7  C5  HET A   1)   1.53449933 +1   88.7232852 +1  -90.4115861 +1     3     1     2
  C(HETATM    8  C6  HET A   1)   1.48199983 +1   85.1125929 +1  -93.7571739 +1     1     2     3
  C(HETATM    9  C7  HET A   1)   1.52001434 +1   83.8860133 +1  -18.3859147 +1     2     1     3
  C(HETATM   10  C8  HET A   1)   1.53713325 +1  109.9960469 +1   93.9627674 +1     5     1     2
[...]
 32  3    3.0590 33  1    1.1135 33  2    1.8826 33  3    1.0107 34  1    1.1139
 34  2    1.9023 34  3    1.1724 35  1    1.1165 35  2    1.8852 35  3    5.4413
 36  1    1.1084 36  2    1.9240 36  3    3.1599 37  1    1.1072 37  2    1.9325
 37  3    1.1273 38  1    1.1087 38  2    1.9292 38  3    5.1238 39  1    1.1110
 39  2    1.9175 39  3    3.1120 40  1    1.1088 40  2    1.9302 40  3    3.1330
 41  1    1.1061 41  2    1.9265 41  3    5.1700 42  1    1.1078 42  2    1.9282
 42  3    1.1846 43  1    1.1127 43  2    1.9209 43  3    3.1958 44  1    1.0971
 44  2    0.5733 44  3    3.8256
 grad
       0.00022    0.00003    0.00006   -0.15055    0.00000    0.00000   -0.08910   -0.00123
       0.00000   -0.03064   -0.13869   -0.01476   -0.15084   -0.01528    0.07166   -0.08453
      -0.13821    0.04602   -0.06271   -0.13832    0.05136   -0.04596   -0.12575    0.04530
      -0.02532   -0.17175    0.03902   -0.14038   -0.08259    0.02870   -0.05226   -0.03578
       0.05014   -0.11674   -0.15490    0.02324   -0.10438   -0.17186    0.08564   -0.09478
      -0.00915    0.00188    0.01019   -0.07515    0.09001    0.00172   -0.23173    0.04357
      -0.14984    0.01511    0.06512   -0.02696   -0.01498   -0.01048   -0.00865   -0.09762
       0.03769    0.00605   -0.05634   -0.00471   -0.00163   -0.00600   -0.02342   -0.03262
       0.01739   -0.02804   -0.00365   -0.10640   -0.03116   -0.03299   -0.00228   -0.02960
      -0.01182   -0.11093   -0.03143   -0.00507   -0.10621    0.01928   -0.05236    0.04186
       0.01517    0.01906   -0.06560    0.01103   -0.02342   -0.04668    0.02549   -0.00742
      -0.02931    0.09323   -0.05384   -0.01841    0.08828   -0.00935   -0.02933    0.07369
      -0.03198   -0.00974    0.07616   -0.05227    0.03104    0.00285    0.01931   -0.03229
       0.00148   -0.02180   -0.04672    0.06929   -0.07951   -0.01152    0.03943    0.01552
      -0.03584    0.00294   -0.03171   -0.08928    0.01638   -0.02915   -0.02053    0.02015
       0.00060   -0.05621    0.01056   -0.04622   -0.00986   -0.00672   -0.01201    0.01667
      -0.00404   -0.07863   -0.03682   -0.00434
 CYCLE:    62 TIME:   0.023 TIME LEFT:  2.00D  GRAD.:     0.749 HEAT:  104.6945

     GRADIENT =  0.74895 IS LESS THAN CUTOFF =  1.00000



  HEAT OF FORMATION        104.69453260743467    

 -------------------------------------------------------------------------------
 PM7 CHARGE=+1 EF NOXYZ PRNT=2 PDBOUT COMPFG GRAPHF
 644020



     GEOMETRY OPTIMISED USING EIGENVECTOR FOLLOWING (EF).     
     SCF FIELD WAS ACHIEVED                                   


                              PM7 CALCULATION
                                                       MOPAC v22.0.6 Linux
                                                       Sun Oct  5 22:55:41 2025




          FINAL HEAT OF FORMATION =        104.69453 KCAL/MOL =     438.04192 KJ/MOL


          COSMO AREA              =        257.45 SQUARE ANGSTROMS
          COSMO VOLUME            =        310.58 CUBIC ANGSTROMS

          GRADIENT NORM           =          0.74895          =       0.11291 PER ATOM
          IONIZATION POTENTIAL    =         12.620833 EV
          HOMO LUMO ENERGIES (EV) =        -12.621 -2.639
          NO. OF FILLED LEVELS    =         48
          MOLECULAR WEIGHT        =        235.3917         POINT GROUP:  C1  

          MOLECULAR DIMENSIONS (Angstroms)

            Atom       Atom       Distance
            H    40    H    39     9.37124
            H    43    H    22     6.11911
            H    29    H    24     5.30493


          SCF CALCULATIONS        =         74

          WALL-CLOCK TIME         =      1.367 SECONDS
          COMPUTATION TIME        =      1.263 SECONDS




  ATOM               CHEMICAL                 BOND LENGTH      BOND ANGLE     TWIST ANGLE 
 NUMBER               SYMBOL                  (ANGSTROMS)      (DEGREES)       (DEGREES) 
   (I)                                           NA:I           NB:NA:I       NC:NB:NA:I       NA    NB    NC 
     1       N(HETATM    1  N1  HET A   1)    0.23659726  *   -0.0885120  *    0.0074000  *
     2       N(HETATM    2  N2  HET A   1)    2.66383859  *   -3.9712930  *  -33.6761493  *     1     0     0
     3       C(HETATM    3  C1  HET A   1)    2.49013357  *   57.8965809  *   48.5515523  *     1     2     0
     4       C(HETATM    4  C2  HET A   1)    2.47893521  *   60.1619887  *  -69.1573564  *     3     1     2
     5       C(HETATM    5  C3  HET A   1)    1.49472842  *   88.7145422  *   20.0954295  *     1     2     3
     6       C(HETATM    6  C4  HET A   1)    1.52998587  *   86.8173573  *   93.4719145  *     2     1     3
     7       C(HETATM    7  C5  HET A   1)    1.53262454  *   89.9245529  *  -90.4223692  *     3     1     2
     8       C(HETATM    8  C6  HET A   1)    1.49013065  *   88.8285190  *  -91.0088071  *     1     2     3
     9       C(HETATM    9  C7  HET A   1)    1.51325042  *   88.6590642  *  -18.1555835  *     2     1     3
    10       C(HETATM   10  C8  HET A   1)    1.54080865  *  110.4089820  *   91.9217494  *     5     1     2
    11       C(HETATM   11  C9  HET A   1)    1.53169783  *  111.4003595  * -157.1882390  *     6     2     1
    12       C(HETATM   12  C10 HET A   1)    1.48751476  *  142.7496072  *  146.6495703  *     1     2     3
    13       C(HETATM   13  C11 HET A   1)    1.50807095  *  143.6073724  * -144.5974547  *     2     1     3
    14       C(HETATM   14  C12 HET A   1)    1.53093290  *  110.6666500  *   56.2114094  *    10     5     1
    15       C(HETATM   15  C13 HET A   1)    1.53078506  *  110.4854464  *  -56.3154318  *    11     6     2
    16       C(HETATM   16  C14 HET A   1)    1.52942646  *  109.1337789  *  -57.4749095  *    14    10     5
    17       C(HETATM   17  C15 HET A   1)    1.52938087  *  110.8049317  *   56.5231996  *    15    11     6
    18       H(HETATM   18  H1  HET A   1)    1.11938369  *  142.3139548  *  145.7786282  *     3     1     2
    19       H(HETATM   19 1H2  HET A   1)    1.11978741  *  145.7175098  * -141.4209178  *     4     3     1
    20       H(HETATM   20  H3  HET A   1)    1.12368603  *  110.3856770  * -148.1531505  *     5     1     2
    21       H(HETATM   21  H4  HET A   1)    1.12586260  *  105.8527270  *   84.6868813  *     6     2     1
    22       H(HETATM   22 1H5  HET A   1)    1.10972920  *  110.7865774  *  -88.8062564  *     7     3     1
    23       H(HETATM   23 2H5  HET A   1)    1.10650199  *  111.2853064  *  155.1470124  *     7     3     1
    24       H(HETATM   24 1H6  HET A   1)    1.11283737  *  108.2004051  *  -92.1063253  *     8     1     2
    25       H(HETATM   25 2H6  HET A   1)    1.11377511  *  112.2943048  *  150.8037434  *     8     1     2
    26       H(HETATM   26 1H7  HET A   1)    1.11301290  *  108.7309269  *  -94.5097928  *     9     2     1
    27       H(HETATM   27 2H7  HET A   1)    1.11256026  *  110.2842871  *  148.6241431  *     9     2     1
    28       H(HETATM   28 1H8  HET A   1)    1.10474592  *  111.0681064  *  -65.2247694  *    10     5     1
    29       H(HETATM   29 2H8  HET A   1)    1.10802750  *  109.4689360  *  177.8559150  *    10     5     1
    30       H(HETATM   30 1H9  HET A   1)    1.11155281  *  109.4227084  * -177.4760995  *    11     6     2
    31       H(HETATM   31 2H9  HET A   1)    1.10707723  *  111.5939436  *   66.9525629  *    11     6     2
    32       H(HETATM   32 1H10 HET A   1)    1.11345809  *  111.7073906  *  175.2698511  *    12     1     2
    33       H(HETATM   33 2H10 HET A   1)    1.11346356  *  107.8678054  *   57.9087360  *    12     1     2
    34       H(HETATM   34 1H11 HET A   1)    1.11393782  *  108.9957870  *   67.1720923  *    13     2     1
    35       H(HETATM   35 2H11 HET A   1)    1.11645324  *  108.0120312  *  -48.2369519  *    13     2     1
    36       H(HETATM   36 1H12 HET A   1)    1.10835529  *  110.2362332  * -178.9509255  *    14    10     5
    37       H(HETATM   37 2H12 HET A   1)    1.10718044  *  110.7230111  *   64.5922424  *    14    10     5
    38       H(HETATM   38 1H13 HET A   1)    1.10867195  *  110.5329710  *  -66.4258930  *    15    11     6
    39       H(HETATM   39 2H13 HET A   1)    1.11095732  *  109.8632704  *  178.3059366  *    15    11     6
    40       H(HETATM   40 1H14 HET A   1)    1.10880122  *  110.5922809  *  179.5079725  *    16    14    10
    41       H(HETATM   41 2H14 HET A   1)    1.10606150  *  110.3786904  *  -63.7822371  *    16    14    10
    42       H(HETATM   42 1H15 HET A   1)    1.10777692  *  110.4804396  *   67.8702997  *    17    15    11
    43       H(HETATM   43 2H15 HET A   1)    1.11272721  *  110.0622584  * -176.8941566  *    17    15    11
    44       H(HETATM   44 2H2  HET A   1)    1.09710692  *   32.8498600  * -140.8105514  *     2     1     3

                             CARTESIAN COORDINATES

   1    N        0.236597256    -0.088511995     0.007400040
   2    N        2.900435848    -0.088511995     0.007400040
   3    C        1.559976574     2.020855771     0.007400040
   4    C        1.552589679     0.569455062     2.017002282
   5    C        0.270129378     1.314866571    -0.506036650
   6    C        2.815492511    -0.181023903     1.532222304
   7    C        1.549333611     2.025150512     1.539981603
   8    C        0.267062643    -0.114741893     1.496988305
   9    C        2.865023355     1.349005798    -0.463997230
  10    C        0.233768476     1.324470966    -2.046386263
  11    C        4.096984774     0.332650760     2.195557938
  12    C       -0.947461304    -0.840630752    -0.487597816
  13    C        4.114387943    -0.817834011    -0.510950902
  14    C       -0.994550236     0.570450388    -2.562566129
  15    C        5.315300619    -0.430934548     1.670251486
  16    C       -0.968435420    -0.860007665    -2.021961759
  17    C        5.406290233    -0.326933883     0.147126217
  18    H        1.551440978     3.071966551    -0.377454633
  19    H        1.539704058     0.539011074     3.136301607
  20    H       -0.615609539     1.892174694    -0.125442126
  21    H        2.698284278    -1.275692955     1.767867158
  22    H        0.656474204     2.559186167     1.926125210
  23    H        2.410785856     2.588478628     1.946070397
  24    H        0.235322108    -1.177158138     1.826641575
  25    H       -0.623705246     0.380108067     1.946600456
  26    H        2.939517111     1.362948945    -1.574426870
  27    H        3.746717058     1.904516673    -0.074363803
  28    H        1.145513738     0.864683083    -2.468025012
  29    H        0.220155557     2.371413503    -2.408947920
  30    H        4.018268770     0.208419327     3.297338314
  31    H        4.227356826     1.421184269     2.041551672
  32    H       -1.899325677    -0.410248868    -0.102221936
  33    H       -0.878608179    -1.881316929    -0.097684202
  34    H        4.163809662    -0.698914693    -1.617419684
  35    H        3.972708566    -1.907582376    -0.313863910
  36    H       -1.003625411     0.565567467    -3.670873508
  37    H       -1.926486241     1.085901575    -2.259822217
  38    H        5.274858255    -1.492718796     1.986688085
  39    H        6.241304013    -0.029863596     2.134886799
  40    H       -1.853994373    -1.426429594    -2.374653818
  41    H       -0.088258002    -1.403632501    -2.413282333
  42    H        5.640221554     0.712235182    -0.157132699
  43    H        6.262471849    -0.931641377    -0.226295447
  44    H        1.978761944    -0.549761653    -0.368644580


           Empirical Formula: C15 H27 N2  =    44 atoms



      MOLECULAR POINT GROUP   :   C1  


                  EIGENVALUES  
 -41.53592 -38.60695 -33.11567 -32.64097 -32.03889 -30.76263 -29.20117 -28.78193
 -27.18110 -26.34262 -25.64958 -25.42295 -24.70971 -24.32848 -23.56617 -22.45030
 -21.99111 -21.01560 -20.38625 -20.18046 -19.76717 -19.69559 -19.24882 -18.67539
 -18.51270 -18.36659 -18.13910 -17.86447 -17.73611 -17.62611 -17.51733 -17.12585
 -16.87226 -16.69929 -16.18000 -16.13438 -15.97924 -15.76741 -15.59405 -15.30828
 -15.21951 -15.11492 -14.95973 -14.89127 -14.48568 -14.26720 -14.05635 -12.62083
  -2.63876  -0.90645  -0.78575  -0.64670  -0.33764  -0.18449  -0.14157  -0.06311
   0.10753   0.22366   0.39683   0.48629   0.68786   0.85955   1.00492   1.02969
   1.19361   1.26407   1.35579   1.43658   1.51830   1.57855   1.66664   1.70446
   1.78306   1.95871   2.01576   2.04391   2.10921   2.17988   2.18960   2.33231
   2.34933   2.39589   2.56497   2.62256   2.69319   2.78448   2.82757   2.97184
   2.99098   3.02273   3.11945   3.13804   3.40105   3.69173   3.79545


              NET ATOMIC CHARGES AND DIPOLE CONTRIBUTIONS

  ATOM NO.                 TYPE                        CHARGE      No. of ELECS.   s-Pop       p-Pop       
    1          N(HETATM    1  N1  HET A   1)          -0.494975        5.4950     1.68371     3.81127
    2          N(HETATM    2  N2  HET A   1)          -0.168762        5.1688     1.54993     3.61883
    3          C(HETATM    3  C1  HET A   1)          -0.159219        4.1592     1.07677     3.08245
    4          C(HETATM    4  C2  HET A   1)          -0.157088        4.1571     1.07510     3.08199
    5          C(HETATM    5  C3  HET A   1)           0.031604        3.9684     1.08042     2.88798
    6          C(HETATM    6  C4  HET A   1)           0.000699        3.9993     1.09712     2.90219
    7          C(HETATM    7  C5  HET A   1)          -0.294349        4.2943     1.06342     3.23093
    8          C(HETATM    8  C6  HET A   1)          -0.141468        4.1415     1.07668     3.06478
    9          C(HETATM    9  C7  HET A   1)          -0.169058        4.1691     1.08997     3.07909
   10          C(HETATM   10  C8  HET A   1)          -0.298615        4.2986     1.06507     3.23354
   11          C(HETATM   11  C9  HET A   1)          -0.306367        4.3064     1.06460     3.24177
   12          C(HETATM   12  C10 HET A   1)          -0.106280        4.1063     1.07173     3.03455
   13          C(HETATM   13  C11 HET A   1)          -0.164746        4.1647     1.08658     3.07816
   14          C(HETATM   14  C12 HET A   1)          -0.258243        4.2582     1.05743     3.20081
   15          C(HETATM   15  C13 HET A   1)          -0.269056        4.2691     1.05813     3.21093
   16          C(HETATM   16  C14 HET A   1)          -0.279065        4.2791     1.06134     3.21772
   17          C(HETATM   17  C15 HET A   1)          -0.285355        4.2854     1.06151     3.22385
   18          H(HETATM   18  H1  HET A   1)           0.173217        0.8268     0.82678
   19          H(HETATM   19 1H2  HET A   1)           0.174144        0.8259     0.82586
   20          H(HETATM   20  H3  HET A   1)           0.145777        0.8542     0.85422
   21          H(HETATM   21  H4  HET A   1)           0.163080        0.8369     0.83692
   22          H(HETATM   22 1H5  HET A   1)           0.171769        0.8282     0.82823
   23          H(HETATM   23 2H5  HET A   1)           0.159184        0.8408     0.84082
   24          H(HETATM   24 1H6  HET A   1)           0.154260        0.8457     0.84574
   25          H(HETATM   25 2H6  HET A   1)           0.151999        0.8480     0.84800
   26          H(HETATM   26 1H7  HET A   1)           0.167035        0.8330     0.83297
   27          H(HETATM   27 2H7  HET A   1)           0.173794        0.8262     0.82621
   28          H(HETATM   28 1H8  HET A   1)           0.136207        0.8638     0.86379
   29          H(HETATM   29 2H8  HET A   1)           0.156867        0.8431     0.84313
   30          H(HETATM   30 1H9  HET A   1)           0.173292        0.8267     0.82671
   31          H(HETATM   31 2H9  HET A   1)           0.159522        0.8405     0.84048
   32          H(HETATM   32 1H10 HET A   1)           0.138370        0.8616     0.86163
   33          H(HETATM   33 2H10 HET A   1)           0.146474        0.8535     0.85353
   34          H(HETATM   34 1H11 HET A   1)           0.168527        0.8315     0.83147
   35          H(HETATM   35 2H11 HET A   1)           0.172956        0.8270     0.82704
   36          H(HETATM   36 1H12 HET A   1)           0.157532        0.8425     0.84247
   37          H(HETATM   37 2H12 HET A   1)           0.151937        0.8481     0.84806
   38          H(HETATM   38 1H13 HET A   1)           0.156412        0.8436     0.84359
   39          H(HETATM   39 2H13 HET A   1)           0.167896        0.8321     0.83210
   40          H(HETATM   40 1H14 HET A   1)           0.161808        0.8382     0.83819
   41          H(HETATM   41 2H14 HET A   1)           0.144554        0.8554     0.85545
   42          H(HETATM   42 1H15 HET A   1)           0.156395        0.8436     0.84360
   43          H(HETATM   43 2H15 HET A   1)           0.176097        0.8239     0.82390
   44          H(HETATM   44 2H2  HET A   1)           0.361237        0.6388     0.63876
 DIPOLE           X         Y         Z       TOTAL
 POINT-CHG.     3.050    -0.648     0.544     3.166
 HYBRID        -0.414     0.083     0.035     0.423
 SUM            2.637    -0.565     0.578     2.758


          ATOMIC ORBITAL ELECTRON POPULATIONS

                   Atom                  s        px        py        pz   
   N(HETATM    1  N1  HET A   1)   1.68371   1.45778   1.21703   1.13646
   N(HETATM    2  N2  HET A   1)   1.54993   1.23452   1.18733   1.19699
   C(HETATM    3  C1  HET A   1)   1.07677   0.96837   1.09959   1.01448
   C(HETATM    4  C2  HET A   1)   1.07510   0.96661   0.99942   1.11596
   C(HETATM    5  C3  HET A   1)   1.08042   1.02584   0.87112   0.99101
   C(HETATM    6  C4  HET A   1)   1.09712   1.01214   1.11391   0.77613
   C(HETATM    7  C5  HET A   1)   1.06342   1.19529   1.02690   1.00874
   C(HETATM    8  C6  HET A   1)   1.07668   1.05482   1.13488   0.87508
   C(HETATM    9  C7  HET A   1)   1.08997   1.10333   0.84937   1.12638
   C(HETATM   10  C8  HET A   1)   1.06507   1.09645   1.14250   0.99459
   C(HETATM   11  C9  HET A   1)   1.06460   0.97981   1.12982   1.13214
   C(HETATM   12  C10 HET A   1)   1.07173   0.95095   1.06437   1.01923
   C(HETATM   13  C11 HET A   1)   1.08658   0.90060   1.07212   1.10545
   C(HETATM   14  C12 HET A   1)   1.05743   1.05916   1.00900   1.13265
   C(HETATM   15  C13 HET A   1)   1.05813   1.07434   1.14003   0.99655
   C(HETATM   16  C14 HET A   1)   1.06134   1.17583   1.04979   0.99210
   C(HETATM   17  C15 HET A   1)   1.06151   1.03002   1.16921   1.02462
   H(HETATM   18  H1  HET A   1)   0.82678
   H(HETATM   19 1H2  HET A   1)   0.82586
   H(HETATM   20  H3  HET A   1)   0.85422
   H(HETATM   21  H4  HET A   1)   0.83692
   H(HETATM   22 1H5  HET A   1)   0.82823
   H(HETATM   23 2H5  HET A   1)   0.84082
   H(HETATM   24 1H6  HET A   1)   0.84574
   H(HETATM   25 2H6  HET A   1)   0.84800
   H(HETATM   26 1H7  HET A   1)   0.83297
   H(HETATM   27 2H7  HET A   1)   0.82621
   H(HETATM   28 1H8  HET A   1)   0.86379
   H(HETATM   29 2H8  HET A   1)   0.84313
   H(HETATM   30 1H9  HET A   1)   0.82671
   H(HETATM   31 2H9  HET A   1)   0.84048
   H(HETATM   32 1H10 HET A   1)   0.86163
   H(HETATM   33 2H10 HET A   1)   0.85353
   H(HETATM   34 1H11 HET A   1)   0.83147
   H(HETATM   35 2H11 HET A   1)   0.82704
   H(HETATM   36 1H12 HET A   1)   0.84247
   H(HETATM   37 2H12 HET A   1)   0.84806
   H(HETATM   38 1H13 HET A   1)   0.84359
   H(HETATM   39 2H13 HET A   1)   0.83210
   H(HETATM   40 1H14 HET A   1)   0.83819
   H(HETATM   41 2H14 HET A   1)   0.85545
   H(HETATM   42 1H15 HET A   1)   0.84360
   H(HETATM   43 2H15 HET A   1)   0.82390
   H(HETATM   44 2H2  HET A   1)   0.63876

           DATA FOR GRAPH WRITTEN TO DISK

 **********************
 *                    *
 * JOB ENDED NORMALLY *
 *                    *
 **********************



 TOTAL JOB TIME:             1.38 SECONDS

 == MOPAC DONE ==
