 *******************************************************************************
 **                                                                           **
 **                              MOPAC v22.0.6                                **
 **                                                                           **
 *******************************************************************************
 **          Digital Object Identifier (DOI): 10.5281/zenodo.6511958          **
 **    Visit the DOI location for information on how to cite this program.    **
 *******************************************************************************

                              PM7 CALCULATION RESULTS

 *******************************************************************************
 *  CALCULATION DONE:                                Sun Oct 12 20:08:58 2025  *
 *  PM7        - The PM7 Hamiltonian to be used
 *  PDBOUT     - PRINT GEOMETRY IN PDB FORMAT
 *  RESIDUES   - DETERMINE THE SEQUENCE OF RESIDUES
 *
 *
 *
 *                 CHARGE ON SYSTEM = +1
 *
 *
 *
 *  EF         - USE EF ROUTINE FOR MINIMUM SEARCH
 *  T=         - A TIME OF 172800.0 SECONDS REQUESTED
 *  DUMP=N     - RESTART FILE WRITTEN EVERY 7200.0 SECONDS REQUESTED
 *  NOXYZ      - CARTESIAN COORDINATES NOT TO BE PRINTED
 *  PRNT       - EXTRA PRINTING IN EF ROUTINE
 *  GRAPH      - GENERATE FILE FOR GRAPHICS
 *  COMPFG     - PRINT HEAT OF FORMATION CALC'D IN COMPFG
 *******************************************************************************
PM7 CHARGE=+1 EF NOXYZ PRNT=2 PDBOUT COMPFG GRAPHF
 (1S,12S,14R)-9-methoxy-4-methyl-11-oxa-4-azoniatetracyclo[8.6.1.01,12.06,17]heptadeca-6(17),7,9,15-tetraen-14-ol

  ATOM    CHEMICAL      BOND LENGTH      BOND ANGLE     TWIST ANGLE 
 NUMBER    SYMBOL       (ANGSTROMS)      (DEGREES)       (DEGREES) 
   (I)                     NA:I           NB:NA:I       NC:NB:NA:I       NA    NB    NC 
     1       O          0.00000000  *    0.0000000  *    0.0000000  *     0     0     0
     2       O          2.87853900  *    0.0000000  *    0.0000000  *     1     0     0
     3       O          2.81478500  *  110.0437550  *    0.0000000  *     1     2     0
     4       N          5.16227700  *  109.6482530  * -117.2110670  *     1     2     3
     5       C          2.36202400  *   89.5671280  * -132.4622430  *     1     2     3
     6       C          1.37923100  *   83.3472400  * -171.5622850  *     1     2     3
     7       C          1.52619900  *   67.3611490  *  119.5804750  *     5     1     2
     8       C          1.57343500  *  133.5144700  * -133.8849420  *     5     1     2
     9       C          1.52695900  *  113.7987250  *  -27.7125110  *     6     1     2
    10       C          1.52982000  *  110.8328900  *   19.7855520  *     5     1     2
    11       C          1.34026700  *  116.4438480  *  -62.3428430  *     1     2     3
    12       C          1.52162200  *   72.7962370  *  -65.6656300  *     4     1     2
    13       C          1.42762100  *  132.5489710  * -177.6712250  *     7     5     1
    14       C          1.40313700  *   82.1695910  *  165.6993320  *     2     1     3
    15       C          1.51933000  *   71.0554760  *   82.2781980  *     4     1     2
    16       C          1.34534600  *  123.9547100  *  -39.6759520  *    10     5     1
    17       C          1.35789600  *   59.3378670  * -109.3685130  *     3     1     2
    18       C          1.40745600  *  117.9307370  *  177.3698000  *    13     7     5
    19       C          1.40384000  *  120.8898330  *   -1.5212190  *    18    13     7
    20       C          1.49128800  *   86.2685690  * -171.9591780  *     4     1     2
    21       C          1.37918600  *  174.9818950  *   62.7327430  *     3     1     2
    22       H          1.11426400  *  104.8433170  * -145.4417600  *     6     1     2
    23       H          1.11147100  *  109.5344200  *   88.8276020  *     8     5     1
    24       H          1.10960000  *  108.5208170  *  -27.2869580  *     8     5     1
    25       H          1.11163800  *  111.1211050  *  -58.4166370  *     9     6     1
    26       H          1.11277500  *  107.2628620  * -175.9533910  *     9     6     1
    27       H          1.08530300  *  118.9110890  *  137.5089340  *    10     5     1
    28       H          1.11410100  *  109.5285830  * -136.6852070  *    12     4     1
    29       H          1.14568600  *  114.5981090  *  112.4625040  *    12     4     1
    30       H          1.11470800  *  109.9939380  *  151.6726210  *    14     2     1
    31       H          1.14360700  *  116.5519500  * -112.2965300  *    15     4     1
    32       H          1.11491500  *  108.8959330  *  139.2613670  *    15     4     1
    33       H          1.08583700  *  118.6551380  *  175.5491140  *    16    10     5
    34       H          1.08277100  *  120.2147370  *  179.3313910  *    18    13     7
    35       H          1.08173400  *  118.4540290  * -179.3584130  *    19    18    13
    36       H          1.11023200  *  113.3688860  *   -3.5272500  *    20     4     1
    37       H          1.11226500  *  110.7965790  * -124.9864550  *    20     4     1
    38       H          1.11230400  *  111.7827630  *  119.5987840  *    20     4     1
    39       H          0.99288600  *  163.6903380  *   41.0389900  *     2     1     3
    40       H          1.11097000  *  110.1637520  * -110.8871890  *    21     3     1
    41       H          1.11073500  *  110.2701030  *  127.3739040  *    21     3     1
    42       H          1.10922400  *  109.0468550  *    8.1820310  *    21     3     1
    43       H          1.00523300  *   45.5364720  *    7.8241290  *     4     1     2


 General Reference for PM7:
 "Optimization of Parameters for Semiempirical Methods VI: More Modifications to the 
 NDDO Approximations and Re-optimization of Parameters", J. J. P. Stewart, J. Mol. Mod., 1:32, 19 (2013)
 https://link.springer.com/article/10.1007/s00894-012-1667-x

           Empirical Formula: C17 H22 N O3  =    43 atoms



      MOLECULAR POINT GROUP   :   C1  


      RHF CALCULATION, NO. OF DOUBLY OCCUPIED LEVELS = 56


          Geometry optimization using EF

  HEAT OF FORMATION        222.73970317695057    
 PARAMETERS        0.000   0.000   0.000   2.879   0.000   0.000   2.815   1.921
   0.000   5.162   1.914   4.237   2.362   1.563   3.971   1.379   1.455   3.289

   1.526   1.176   2.087   1.573   2.330   3.946   1.527   1.986   5.800   1.530

   1.934   0.345   1.340   2.032   5.195   1.522   1.271   5.137   1.428   2.313

   3.182   1.403   1.434   2.892   1.519   1.240   1.436   1.345   2.163   5.591

   1.358   1.036   4.374   1.407   2.058   3.096   1.404   2.110   6.257   1.491

   1.506   3.282   1.379   3.054   1.095   1.114   1.830   3.745   1.111   1.912

   1.550   1.110   1.894   5.807   1.112   1.939   5.264   1.113   1.872   3.212

   1.085   2.075   2.400   1.114   1.912   3.898   1.146   2.000   1.963   1.115

   1.920   2.647   1.144   2.034   4.323   1.115   1.901   2.431   1.086   2.071

   3.064   1.083   2.098   3.130   1.082   2.067   3.153   1.110   1.979   6.222

   1.112   1.934   4.102   1.112   1.951   2.087   0.993   2.857   0.716   1.111

   1.923   4.348   1.111   1.925   2.223   1.109   1.903   0.143   1.005   0.795

   0.137
 GRADIENT         -0.000  -0.000  -0.000 -11.328   0.000   0.000 -23.448  -0.257
   0.000  64.097 -39.571 -30.856 -88.291  44.174  19.109 -47.046  -0.535  15.462

  43.290 -83.457  -5.506  17.484 -28.589  14.645  11.684  25.456  -4.646  31.237

   7.648  -0.499  -6.197  -1.050  -5.459 -94.978 -22.995  31.077  42.968   2.588

   3.643 -17.677 -25.709   0.095-107.361 -12.659 -38.795  14.673  16.101  -5.111

  21.007 -82.131  -1.219  39.570  46.442   3.581   1.847  27.857   0.603 -13.166

  -4.626   1.109 -25.216 -24.739   0.394  -6.555   0.383   2.064   3.120   2.083

  -0.413   2.562  -0.905  -0.871   1.147   1.968  -2.206   0.904  -3.320  -4.088

   0.961  11.398   0.042  -4.139  10.606  -0.470  12.352  10.275   4.206  -6.793

   5.767  -5.139   9.937  12.507  -7.205  -6.536  11.177   2.141  -2.887  -7.771

  -0.903  -4.164   0.065   0.293  -4.292  -3.347  -0.041   1.760  -2.684   0.751

   2.398   4.729  -0.981   3.794   4.819   0.779   2.571   4.716   1.815   5.353

  -2.109  -0.600   5.626  -2.132   0.571   6.996  16.007   0.072-148.067  11.583

  -0.501

          DIAGONAL MATRIX USED AS START HESSIAN

*REMARK   3 HET = Not identified; C 17 H 22 N O 3    =    43 atoms res:    1
 PM7 CHARGE=+1 EF NOXYZ PRNT=2 PDBOUT COMPFG GRAPHF
 (1S,12S,14R)-9-methoxy-4-methyl-11-oxa-4-azoniatetracyclo[8.6.1.01,12.06,17]heptadeca-6(17),7,9,15-tetraen-14-ol

  O(HETATM    1  O1  HET A   1)   0.00000000 +1    0.0000000 +1    0.0000000 +1
  O(HETATM    2  O2  HET A   1)   2.87853900 +1    0.0000000 +1    0.0000000 +1     1     0     0
  O(HETATM    3  O3  HET A   1)   2.81478500 +1  110.0437550 +1    0.0000000 +1     1     2     0
  N(HETATM    4  N   HET A   1)   5.16227700 +1  109.6482530 +1 -117.2110670 +1     1     2     3
  C(HETATM    5  C1  HET A   1)   2.36202400 +1   89.5671280 +1 -132.4622430 +1     1     2     3
  C(HETATM    6  C2  HET A   1)   1.37923100 +1   83.3472400 +1 -171.5622850 +1     1     2     3
  C(HETATM    7  C3  HET A   1)   1.52619900 +1   67.3611490 +1  119.5804750 +1     5     1     2
  C(HETATM    8  C4  HET A   1)   1.57343500 +1  133.5144700 +1 -133.8849420 +1     5     1     2
  C(HETATM    9  C5  HET A   1)   1.52695900 +1  113.7987250 +1  -27.7125110 +1     6     1     2
  C(HETATM   10  C6  HET A   1)   1.52982000 +1  110.8328900 +1   19.7855520 +1     5     1     2
  C(HETATM   11  C7  HET A   1)   1.34026700 +1  116.4438480 +1  -62.3428430 +1     1     2     3
  C(HETATM   12  C8  HET A   1)   1.52162200 +1   72.7962370 +1  -65.6656300 +1     4     1     2
  C(HETATM   13  C9  HET A   1)   1.42762100 +1  132.5489710 +1 -177.6712250 +1     7     5     1
  C(HETATM   14  C10 HET A   1)   1.40313700 +1   82.1695910 +1  165.6993320 +1     2     1     3
  C(HETATM   15  C11 HET A   1)   1.51933000 +1   71.0554760 +1   82.2781980 +1     4     1     2
  C(HETATM   16  C12 HET A   1)   1.34534600 +1  123.9547100 +1  -39.6759520 +1    10     5     1
  C(HETATM   17  C13 HET A   1)   1.35789600 +1   59.3378670 +1 -109.3685130 +1     3     1     2
  C(HETATM   18  C14 HET A   1)   1.40745600 +1  117.9307370 +1  177.3698000 +1    13     7     5
  C(HETATM   19  C15 HET A   1)   1.40384000 +1  120.8898330 +1   -1.5212190 +1    18    13     7
  C(HETATM   20  C16 HET A   1)   1.49128800 +1   86.2685690 +1 -171.9591780 +1     4     1     2
  C(HETATM   21  C17 HET A   1)   1.37918600 +1  174.9818950 +1   62.7327430 +1     3     1     2
  H(HETATM   22 1H2  HET A   1)   1.11426400 +1  104.8433170 +1 -145.4417600 +1     6     1     2
  H(HETATM   23 1H4  HET A   1)   1.11147100 +1  109.5344200 +1   88.8276020 +1     8     5     1
  H(HETATM   24 2H4  HET A   1)   1.10960000 +1  108.5208170 +1  -27.2869580 +1     8     5     1
  H(HETATM   25 1H5  HET A   1)   1.11163800 +1  111.1211050 +1  -58.4166370 +1     9     6     1
  H(HETATM   26 2H5  HET A   1)   1.11277500 +1  107.2628620 +1 -175.9533910 +1     9     6     1
  H(HETATM   27  H6  HET A   1)   1.08530300 +1  118.9110890 +1  137.5089340 +1    10     5     1
  H(HETATM   28 1H8  HET A   1)   1.11410100 +1  109.5285830 +1 -136.6852070 +1    12     4     1
  H(HETATM   29 2H8  HET A   1)   1.14568600 +1  114.5981090 +1  112.4625040 +1    12     4     1
  H(HETATM   30  H10 HET A   1)   1.11470800 +1  109.9939380 +1  151.6726210 +1    14     2     1
  H(HETATM   31 1H11 HET A   1)   1.14360700 +1  116.5519500 +1 -112.2965300 +1    15     4     1
  H(HETATM   32 2H11 HET A   1)   1.11491500 +1  108.8959330 +1  139.2613670 +1    15     4     1
  H(HETATM   33  H12 HET A   1)   1.08583700 +1  118.6551380 +1  175.5491140 +1    16    10     5
  H(HETATM   34  H14 HET A   1)   1.08277100 +1  120.2147370 +1  179.3313910 +1    18    13     7
  H(HETATM   35  H15 HET A   1)   1.08173400 +1  118.4540290 +1 -179.3584130 +1    19    18    13
  H(HETATM   36 1H16 HET A   1)   1.11023200 +1  113.3688860 +1   -3.5272500 +1    20     4     1
  H(HETATM   37 2H16 HET A   1)   1.11226500 +1  110.7965790 +1 -124.9864550 +1    20     4     1
  H(HETATM   38 3H16 HET A   1)   1.11230400 +1  111.7827630 +1  119.5987840 +1    20     4     1
  H(HETATM   39 2H2  HET A   1)   0.99288600 +1  163.6903380 +1   41.0389900 +1     2     1     3
  H(HETATM   40 1H17 HET A   1)   1.11097000 +1  110.1637520 +1 -110.8871890 +1    21     3     1
  H(HETATM   41 2H17 HET A   1)   1.11073500 +1  110.2701030 +1  127.3739040 +1    21     3     1
  H(HETATM   42 3H17 HET A   1)   1.10922400 +1  109.0468550 +1    8.1820310 +1    21     3     1
  H(HETATM   43  H   HET A   1)   1.00523300 +1   45.5364720 +1    7.8241290 +1     4     1     2

 XPARAM 
  1  1    0.0000  1  2    0.0000  1  3    0.0000  2  1    2.8785  2  2    0.0000
  2  3    0.0000  3  1    2.8148  3  2    1.9206  3  3    0.0000  4  1    5.1623
  4  2    1.9137  4  3    4.2375  5  1    2.3620  5  2    1.5632  5  3    3.9713
  6  1    1.3792  6  2    1.4547  6  3    3.2889  7  1    1.5262  7  2    1.1757
  7  3    2.0871  8  1    1.5734  8  2    2.3303  8  3    3.9465  9  1    1.5270
  9  2    1.9862  9  3    5.7995 10  1    1.5298 10  2    1.9344 10  3    0.3453
 11  1    1.3403 11  2    2.0323 11  3    5.1951 12  1    1.5216 12  2    1.2705
 12  3    5.1371 13  1    1.4276 13  2    2.3134 13  3    3.1822 14  1    1.4031
 14  2    1.4341 14  3    2.8920 15  1    1.5193 15  2    1.2402 15  3    1.4360
 16  1    1.3453 16  2    2.1634 16  3    5.5907 17  1    1.3579 17  2    1.0356
 17  3    4.3743 18  1    1.4075 18  2    2.0583 18  3    3.0957 19  1    1.4038
 19  2    2.1099 19  3    6.2566 20  1    1.4913 20  2    1.5057 20  3    3.2819
 21  1    1.3792 21  2    3.0540 21  3    1.0949 22  1    1.1143 22  2    1.8299
 22  3    3.7447 23  1    1.1115 23  2    1.9117 23  3    1.5503 24  1    1.1096
 24  2    1.8940 24  3    5.8069 25  1    1.1116 25  2    1.9394 25  3    5.2636
 26  1    1.1128 26  2    1.8721 26  3    3.2122 27  1    1.0853 27  2    2.0754
 27  3    2.4000 28  1    1.1141 28  2    1.9116 28  3    3.8976 29  1    1.1457
 29  2    2.0001 29  3    1.9628 30  1    1.1147 30  2    1.9198 30  3    2.6472
 31  1    1.1436 31  2    2.0342 31  3    4.3232 32  1    1.1149 32  2    1.9006
 32  3    2.4306 33  1    1.0858 33  2    2.0709 33  3    3.0639 34  1    1.0828
 34  2    2.0981 34  3    3.1299 35  1    1.0817 35  2    2.0674 35  3    3.1528
 36  1    1.1102 36  2    1.9787 36  3    6.2216 37  1    1.1123 37  2    1.9338
 37  3    4.1018 38  1    1.1123 38  2    1.9510 38  3    2.0874 39  1    0.9929
 39  2    2.8569 39  3    0.7163 40  1    1.1110 40  2    1.9227 40  3    4.3478
 41  1    1.1107 41  2    1.9246 41  3    2.2231 42  1    1.1092 42  2    1.9032
 42  3    0.1428 43  1    1.0052 43  2    0.7948 43  3    0.1366
 grad
      -0.00000   -0.00000   -0.00000  -11.32837    0.00000    0.00000  -23.44844   -0.25671
       0.00000   64.09665  -39.57076  -30.85606  -88.29143   44.17430   19.10938  -47.04551
      -0.53549   15.46223   43.28984  -83.45732   -5.50646   17.48401  -28.58898   14.64463
      11.68445   25.45551   -4.64553   31.23721    7.64812   -0.49943   -6.19688   -1.05043
      -5.45910  -94.97795  -22.99541   31.07699   42.96780    2.58839    3.64275  -17.67662
     -25.70898    0.09509 -107.36055  -12.65895  -38.79549   14.67312   16.10133   -5.11055
      21.00702  -82.13063   -1.21915   39.56986   46.44174    3.58085    1.84702   27.85710
       0.60301  -13.16600   -4.62648    1.10872  -25.21632  -24.73913    0.39407   -6.55537
       0.38318    2.06362    3.12039    2.08327   -0.41269    2.56167   -0.90531   -0.87137
       1.14730    1.96799   -2.20593    0.90352   -3.32014   -4.08823    0.96128   11.39757
       0.04240   -4.13915   10.60590   -0.47017   12.35244   10.27478    4.20572   -6.79295
       5.76651   -5.13916    9.93703   12.50738   -7.20529   -6.53558   11.17708    2.14074
      -2.88738   -7.77053   -0.90320   -4.16429    0.06517    0.29281   -4.29152   -3.34687
      -0.04117    1.76043   -2.68370    0.75149    2.39849    4.72893   -0.98126    3.79417
       4.81930    0.77937    2.57147    4.71570    1.81492    5.35279   -2.10851   -0.59951
       5.62608   -2.13250    0.57126    6.99572   16.00684    0.07173 -148.06724   11.58263
      -0.50098
 CYCLE:     1 TIME:   0.039 TIME LEFT:  2.00D  GRAD.:   309.953 HEAT:  222.7397

          HESSIAN HAS  0 NEGATIVE EIGENVALUE(S)
  MIN SEARCH, CORRECT HESSIAN, TRYING PURE NR STEP
 LAMBDA THAT MINIMIZES ALONG ALL MODES =        0.000000000
 PURE NR-STEP HAS LENGTH   0.51197
 LAMBDA THAT MINIMIZES ALONG ALL MODES =     -109.713094469
 P-RFO-STEP   HAS LENGTH   0.39871
 LAMBDA THAT MINIMIZES ALONG ALL MODES =     -760.662541716
 QA/TRIM-STEP HAS LENGTH   0.20000

  HEAT OF FORMATION        366.81440750612819    
 PARAMETERS       -0.016   0.002   0.006   2.869  -0.014  -0.002   2.820   1.907
  -0.004   5.124   1.923   4.260   2.409   1.521   3.949   1.401   1.453   3.273

   1.495   1.238   2.093   1.563   2.350   3.931   1.521   1.964   5.804   1.505

   1.923   0.346   1.344   2.032   5.201   1.573   1.287   5.105   1.402   2.308

   3.178   1.408   1.452   2.893   1.573   1.246   1.477   1.338   2.150   5.596

   1.341   1.099   4.377   1.382   2.019   3.092   1.405   2.087   6.256   1.494

   1.506   3.281   1.392   3.070   1.094   1.117   1.829   3.743   1.108   1.909

   1.551   1.108   1.895   5.808   1.111   1.938   5.266   1.111   1.874   3.217

   1.084   2.066   2.400   1.116   1.903   3.898   1.137   1.991   1.959   1.117

   1.915   2.653   1.138   2.024   4.331   1.117   1.891   2.429   1.087   2.077

   3.065   1.084   2.098   3.130   1.083   2.070   3.153   1.110   1.981   6.221

   1.110   1.930   4.103   1.109   1.947   2.087   0.991   2.852   0.714   1.108

   1.924   4.349   1.106   1.926   2.223   1.103   1.890   0.143   1.086   0.785

   0.138
 GRADIENT         -0.000  -0.000  -0.000 -22.624   0.000   0.000 142.148-171.202
   0.000-654.780 749.3631550.352 825.550**************** -33.336  -3.558   1.820

-123.5262608.557 195.243  10.204  26.446  31.290   3.529  14.435   4.538 -43.682

-274.065-223.432 -65.359  21.994  51.455 -59.700 -46.487 -34.362 576.972********

 -83.326  24.365 -23.783-183.208 151.027-965.371 198.976  76.805-152.465  -5.492

-144.991  97.203   3.526-204.445 292.014  36.605 -74.225 -21.909  11.151  -8.176

  -3.006  -6.287 -24.692 -16.817   0.212  -0.574  -0.503   6.271   7.001  -6.665

 -12.759  -6.891   7.473 -16.830   1.096   0.469  -3.630  -1.529  -2.245  -6.167

  -1.859   9.025  -0.188   2.338  11.424  -5.324   6.869  20.406  -4.176 -12.808

   7.328   5.117 -26.576  32.092  22.044 -21.702  29.215  -9.391 -12.266   2.304

   0.846 -10.963 -28.238   0.372 -10.379  11.901   0.878   2.334  -2.901  -0.474

   2.205   4.052  -0.393   2.498   4.331   0.645   0.355   5.966   2.730   4.070

  -1.905  -0.730   3.843  -2.084   0.664   3.150  12.637   0.099 -73.961 -16.893

  33.313
       HoF         ACTUAL,  PREDICTED ENERGY CHANGE, RATIO
   366.8144075   144.0747043         -44.8417446   -3.2129594
 UNACCEPTABLE RATIO, REJECTING STEP, REDUCING DMAX TO 0.1000
  MIN SEARCH, CORRECT HESSIAN, TRYING PURE NR STEP
 LAMBDA THAT MINIMIZES ALONG ALL MODES =        0.000000000
 PURE NR-STEP HAS LENGTH   0.51197
 LAMBDA THAT MINIMIZES ALONG ALL MODES =     -109.713094469
 P-RFO-STEP   HAS LENGTH   0.39871
 LAMBDA THAT MINIMIZES ALONG ALL MODES =    -2227.324908421
 QA/TRIM-STEP HAS LENGTH   0.10000

  HEAT OF FORMATION        231.41795665019890    
 PARAMETERS       -0.009   0.001   0.002   2.873  -0.007  -0.001   2.818   1.914
  -0.001   5.141   1.918   4.247   2.388   1.544   3.963   1.391   1.454   3.283

   1.509   1.204   2.090   1.568   2.339   3.940   1.524   1.976   5.801   1.517

   1.929   0.345   1.342   2.032   5.197   1.549   1.278   5.124   1.413   2.311

   3.181   1.406   1.442   2.892   1.548   1.243   1.452   1.341   2.157   5.593

   1.349   1.065   4.375   1.394   2.040   3.094   1.404   2.099   6.256   1.493

   1.506   3.282   1.386   3.061   1.094   1.116   1.830   3.744   1.110   1.911

   1.551   1.109   1.894   5.807   1.111   1.939   5.265   1.112   1.873   3.214

   1.084   2.071   2.400   1.115   1.908   3.898   1.141   1.996   1.961   1.116

   1.917   2.649   1.140   2.030   4.326   1.116   1.896   2.430   1.086   2.074

   3.064   1.084   2.098   3.130   1.083   2.068   3.153   1.110   1.980   6.221

   1.111   1.932   4.102   1.110   1.949   2.087   0.992   2.855   0.716   1.109

   1.923   4.348   1.108   1.925   2.223   1.106   1.897   0.143   1.049   0.790

   0.137
 GRADIENT         -0.000  -0.000  -0.000 -15.739   0.000   0.000  60.711 -90.283
   0.000-143.554 309.412 518.454 275.725-594.798-861.309 -38.568  -1.995   6.464

 -79.744 917.224  28.554  15.093   6.148  18.192   7.827  20.728  -0.795   1.228

 -92.479 -74.566 -46.483  13.479  47.173 -70.938 -40.475  -2.212 169.699-444.876

 -12.632  -2.336 -24.639 -62.128  -4.551-254.478  67.313  32.189 -44.061  -3.458

 -66.598   3.293   1.891 -52.432 139.886  14.528 -38.807   3.822   5.355  -9.026

  -2.624  -2.027 -23.726 -22.456   0.319  -3.364   0.029   4.387   3.779  -1.087

  -5.172  -2.648   3.650  -8.580   0.992   1.295  -2.805  -0.288  -2.887  -5.007

  -0.492  10.199  -0.045  -1.709  12.211  -1.998   8.989  15.698  -0.037  -8.801

   6.410  -0.956  -3.501  22.155   3.805 -11.993  17.042  -2.250  -6.602  -3.662

  -0.263  -4.542  -7.147   0.658  -8.334   4.811   0.214   1.871  -2.739   0.233

   2.186   4.599  -0.838   3.075   4.793   0.763   1.567   5.250   2.187   4.697

  -1.871  -0.542   4.714  -1.963   0.493   5.034  14.507   0.085-109.128   1.969

  10.866
       HoF         ACTUAL,  PREDICTED ENERGY CHANGE, RATIO
   231.4179567     8.6782535         -26.1805941   -0.3314766
 UNACCEPTABLE RATIO, REJECTING STEP, REDUCING DMAX TO 0.0500
  MIN SEARCH, CORRECT HESSIAN, TRYING PURE NR STEP
 LAMBDA THAT MINIMIZES ALONG ALL MODES =        0.000000000
 PURE NR-STEP HAS LENGTH   0.51197
 LAMBDA THAT MINIMIZES ALONG ALL MODES =     -109.713094469
 P-RFO-STEP   HAS LENGTH   0.39871
 LAMBDA THAT MINIMIZES ALONG ALL MODES =    -5229.654991852
 QA/TRIM-STEP HAS LENGTH   0.05000

  HEAT OF FORMATION        216.05131998866273    
 PARAMETERS       -0.005   0.001   0.001   2.876  -0.003  -0.000   2.816   1.918
  -0.001   5.151   1.915   4.242   2.375   1.554   3.967   1.385   1.454   3.286

   1.517   1.189   2.088   1.570   2.335   3.944   1.525   1.981   5.800   1.523

   1.932   0.345   1.341   2.032   5.196   1.536   1.274   5.131   1.420   2.312

   3.182   1.405   1.438   2.892   1.534   1.241   1.443   1.343   2.160   5.592

   1.353   1.050   4.375   1.400   2.050   3.095   1.404   2.105   6.257   1.492

   1.506   3.282   1.383   3.057   1.095   1.115   1.830   3.744   1.111   1.911

   1.550   1.109   1.894   5.807   1.111   1.939   5.264   1.112   1.873   3.213

   1.085   2.073   2.400   1.115   1.910   3.898   1.143   1.998   1.962   1.116

   1.919   2.648   1.142   2.032   4.325   1.116   1.899   2.430   1.086   2.072

   3.064   1.083   2.098   3.130   1.082   2.068   3.153   1.110   1.979   6.222

   1.112   1.933   4.102   1.111   1.950   2.087   0.992   2.856   0.716   1.110

   1.923   4.348   1.109   1.925   2.223   1.108   1.900   0.143   1.028   0.793

   0.137
 GRADIENT         -0.000  -0.000  -0.000 -13.255   0.000   0.000  19.166 -44.829
   0.000 -10.877 106.342 176.231  73.220-237.080-352.786 -42.402  -1.271  10.518

 -18.417 335.666   4.304  16.538 -10.067  15.481   9.831  23.318  -2.875  17.626

 -34.691 -30.957 -29.286   6.742  27.343 -81.421 -32.649  14.682  83.251-179.319

  -1.097 -11.072 -25.168 -25.726 -64.781 -91.629   4.408  20.979  -9.498  -4.144

 -22.300 -38.977   0.408  -1.533  84.786   8.071 -17.807  14.581   2.726 -10.743

  -3.409  -0.336 -24.132 -24.066   0.364  -4.919   0.236   3.265   3.130   0.788

  -2.406  -0.050   1.350  -4.561   1.037   1.651  -2.476   0.319  -3.134  -4.512

   0.223  10.796   0.003  -3.096  11.649  -1.014  10.615  13.004   2.144  -7.593

   6.065  -3.262   4.246  17.055  -2.535  -8.870  13.870   0.108  -4.540  -5.929

  -0.632  -4.074  -2.760   0.466  -6.472   0.708   0.046   1.782  -2.698   0.508

   2.271   4.706  -0.931   3.418   4.846   0.778   2.092   4.961   1.982   5.029

  -1.949  -0.533   5.173  -2.008   0.495   6.015  15.317   0.079-128.150   7.706

   4.049
       HoF         ACTUAL,  PREDICTED ENERGY CHANGE, RATIO
   216.0513200    -6.6883832         -14.0838914    0.4748960
     STEPSIZE USED IS  0.05000
 CALCULATED STEP
    -0.004558  0.000612  0.001004 -0.002740 -0.003228 -0.000273  0.001562 -0.003098
    -0.000616 -0.010825  0.001763  0.004134  0.013215 -0.009279 -0.003819  0.006250
    -0.000448 -0.002752 -0.008950  0.013663  0.001101 -0.002958  0.004328 -0.002822
    -0.001772 -0.004757  0.000806 -0.006792 -0.002518  0.000050  0.000945 -0.000011
     0.001020  0.014367  0.003600 -0.005651 -0.007322 -0.001066 -0.000737  0.001381
     0.003855  0.000073  0.015084  0.001212  0.007223 -0.002133 -0.002948  0.000932
    -0.004756  0.013989  0.000399 -0.007077 -0.008711 -0.000675  0.000092 -0.004961
    -0.000134  0.000863  0.000135 -0.000160  0.003711  0.003428 -0.000244  0.000835
    -0.000114 -0.000341 -0.000906 -0.000511  0.000111 -0.000409  0.000207  0.000197
    -0.000220 -0.000320  0.000440 -0.000401  0.000508  0.000790 -0.000427 -0.002089
     0.000023  0.000487 -0.001891  0.000122 -0.002321 -0.001933 -0.000747  0.000794
    -0.001104  0.000981 -0.001693 -0.002213  0.001353  0.000726 -0.002059 -0.000359
     0.000254  0.001287  0.000197  0.000474 -0.000076 -0.000024  0.000487  0.000521
     0.000039 -0.000214  0.000536 -0.000106 -0.000536 -0.000856  0.000215 -0.000950
    -0.000964 -0.000110 -0.000608 -0.000969 -0.000331 -0.000990  0.000350  0.000145
    -0.001239  0.000256 -0.000070 -0.001667 -0.003005  0.000023  0.022882 -0.002198
     0.000194
     NEW TRUST RADIUS =  0.05000

     HESSIAN IS BEING UPDATED USING THE BFGS UPDATE

*REMARK   3 HET = Not identified; C 17 H 22 N O 3    =    43 atoms res:    1
 PM7 CHARGE=+1 EF NOXYZ PRNT=2 PDBOUT COMPFG GRAPHF
 (1S,12S,14R)-9-methoxy-4-methyl-11-oxa-4-azoniatetracyclo[8.6.1.01,12.06,17]heptadeca-6(17),7,9,15-tetraen-14-ol

  O(HETATM    1  O1  HET A   1)  -0.00455798 +1    0.0006119 +1    0.0010036 +1
  O(HETATM    2  O2  HET A   1)   2.87579948 +1   -0.1849222 +1   -0.0156243 +1     1     0     0
  O(HETATM    3  O3  HET A   1)   2.81634714 +1  109.8662720 +1   -0.0352718 +1     1     2     0
  N(HETATM    4  N   HET A   1)   5.15145208 +1  109.7492392 +1 -116.9741899 +1     1     2     3
  C(HETATM    5  C1  HET A   1)   2.37523880 +1   89.0354735 +1 -132.6810590 +1     1     2     3
  C(HETATM    6  C2  HET A   1)   1.38548102 +1   83.3215479 +1 -171.7199416 +1     1     2     3
  C(HETATM    7  C3  HET A   1)   1.51724922 +1   68.1440064 +1  119.6435299 +1     5     1     2
  C(HETATM    8  C4  HET A   1)   1.57047742 +1  133.7624286 +1 -134.0466459 +1     5     1     2
  C(HETATM    9  C5  HET A   1)   1.52518707 +1  113.5261708 +1  -27.6663335 +1     6     1     2
  C(HETATM   10  C6  HET A   1)   1.52302821 +1  110.6886300 +1   19.7884119 +1     5     1     2
  C(HETATM   11  C7  HET A   1)   1.34121213 +1  116.4432162 +1  -62.2844141 +1     1     2     3
  C(HETATM   12  C8  HET A   1)   1.53598936 +1   73.0025164 +1  -65.9894268 +1     4     1     2
  C(HETATM   13  C9  HET A   1)   1.42029891 +1  132.4878671 +1 -177.7134618 +1     7     5     1
  C(HETATM   14  C10 HET A   1)   1.40451793 +1   82.3904394 +1  165.7035062 +1     2     1     3
  C(HETATM   15  C11 HET A   1)   1.53441355 +1   71.1248949 +1   82.6920639 +1     4     1     2
  C(HETATM   16  C12 HET A   1)   1.34321282 +1  123.7858234 +1  -39.6225707 +1    10     5     1
  C(HETATM   17  C13 HET A   1)   1.35314010 +1   60.1393970 +1 -109.3456515 +1     3     1     2
  C(HETATM   18  C14 HET A   1)   1.40037919 +1  117.4316538 +1  177.3311080 +1    13     7     5
  C(HETATM   19  C15 HET A   1)   1.40393181 +1  120.6055715 +1   -1.5289036 +1    18    13     7
  C(HETATM   20  C16 HET A   1)   1.49215147 +1   86.2763035 +1 -171.9683266 +1     4     1     2
  C(HETATM   21  C17 HET A   1)   1.38289728 +1  175.1782922 +1   62.7187483 +1     3     1     2
  H(HETATM   22 1H2  HET A   1)   1.11509890 +1  104.8367746 +1 -145.4612942 +1     6     1     2
  H(HETATM   23 1H4  HET A   1)   1.11056509 +1  109.5051510 +1   88.8339890 +1     8     5     1
  H(HETATM   24 2H4  HET A   1)   1.10919119 +1  108.5326799 +1  -27.2756697 +1     8     5     1
  H(HETATM   25 1H5  HET A   1)   1.11141750 +1  111.1027653 +1  -58.3914050 +1     9     6     1
  H(HETATM   26 2H5  HET A   1)   1.11237393 +1  107.2919783 +1 -175.9081164 +1     9     6     1
  H(HETATM   27  H6  HET A   1)   1.08487648 +1  118.7914180 +1  137.5102307 +1    10     5     1
  H(HETATM   28 1H8  HET A   1)   1.11458805 +1  109.4202204 +1 -136.6782299 +1    12     4     1
  H(HETATM   29 2H8  HET A   1)   1.14336536 +1  114.4873562 +1  112.4196921 +1    12     4     1
  H(HETATM   30  H10 HET A   1)   1.11550226 +1  109.9306639 +1  151.7288407 +1    14     2     1
  H(HETATM   31 1H11 HET A   1)   1.14191353 +1  116.4251280 +1 -112.2190102 +1    15     4     1
  H(HETATM   32 2H11 HET A   1)   1.11564104 +1  108.7779794 +1  139.2408182 +1    15     4     1
  H(HETATM   33  H12 HET A   1)   1.08609130 +1  118.7288837 +1  175.5603981 +1    16    10     5
  H(HETATM   34  H14 HET A   1)   1.08324505 +1  120.2103594 +1  179.3299982 +1    18    13     7
  H(HETATM   35  H15 HET A   1)   1.08222123 +1  118.4838515 +1 -179.3561894 +1    19    18    13
  H(HETATM   36 1H16 HET A   1)   1.11001808 +1  113.3996126 +1   -3.5333260 +1    20     4     1
  H(HETATM   37 2H16 HET A   1)   1.11172922 +1  110.7475582 +1 -124.9741344 +1    20     4     1
  H(HETATM   38 3H16 HET A   1)   1.11135411 +1  111.7275327 +1  119.5924776 +1    20     4     1
  H(HETATM   39 2H2  HET A   1)   0.99227834 +1  163.6348230 +1   41.0199996 +1     2     1     3
  H(HETATM   40 1H17 HET A   1)   1.10998046 +1  110.1837776 +1 -110.8788579 +1    21     3     1
  H(HETATM   41 2H17 HET A   1)   1.10949608 +1  110.2847772 +1  127.3698770 +1    21     3     1
  H(HETATM   42 3H17 HET A   1)   1.10755688 +1  108.8746883 +1    8.1833443 +1    21     3     1
  H(HETATM   43  H   HET A   1)   1.02811507 +1   45.4105250 +1    7.8352294 +1     4     1     2

 XPARAM 
  1  1   -0.0046  1  2    0.0006  1  3    0.0010  2  1    2.8758  2  2   -0.0032
  2  3   -0.0003  3  1    2.8163  3  2    1.9175  3  3   -0.0006  4  1    5.1515
  4  2    1.9155  4  3    4.2416  5  1    2.3752  5  2    1.5540  5  3    3.9675
  6  1    1.3855  6  2    1.4542  6  3    3.2861  7  1    1.5172  7  2    1.1893
  7  3    2.0882  8  1    1.5705  8  2    2.3346  8  3    3.9436  9  1    1.5252
  9  2    1.9814  9  3    5.8003 10  1    1.5230 10  2    1.9319 10  3    0.3454
 11  1    1.3412 11  2    2.0323 11  3    5.1961 12  1    1.5360 12  2    1.2741
 12  3    5.1315 13  1    1.4203 13  2    2.3123 13  3    3.1815 14  1    1.4045
 14  2    1.4380 14  3    2.8921 15  1    1.5344 15  2    1.2414 15  3    1.4432
 16  1    1.3432 16  2    2.1605 16  3    5.5916 17  1    1.3531 17  2    1.0496
 17  3    4.3747 18  1    1.4004 18  2    2.0496 18  3    3.0950 19  1    1.4039
 19  2    2.1050 19  3    6.2565 20  1    1.4922 20  2    1.5058 20  3    3.2818
 21  1    1.3829 21  2    3.0574 21  3    1.0946 22  1    1.1151 22  2    1.8297
 22  3    3.7444 23  1    1.1106 23  2    1.9112 23  3    1.5504 24  1    1.1092
 24  2    1.8943 24  3    5.8071 25  1    1.1114 25  2    1.9391 25  3    5.2641
 26  1    1.1124 26  2    1.8726 26  3    3.2130 27  1    1.0849 27  2    2.0733
 27  3    2.4000 28  1    1.1146 28  2    1.9097 28  3    3.8977 29  1    1.1434
 29  2    1.9982 29  3    1.9621 30  1    1.1155 30  2    1.9187 30  3    2.6482
 31  1    1.1419 31  2    2.0320 31  3    4.3246 32  1    1.1156 32  2    1.8985
 32  3    2.4302 33  1    1.0861 33  2    2.0722 33  3    3.0641 34  1    1.0832
 34  2    2.0981 34  3    3.1299 35  1    1.0822 35  2    2.0679 35  3    3.1528
 36  1    1.1100 36  2    1.9792 36  3    6.2215 37  1    1.1117 37  2    1.9329
 37  3    4.1020 38  1    1.1114 38  2    1.9500 38  3    2.0873 39  1    0.9923
 39  2    2.8560 39  3    0.7159 40  1    1.1100 40  2    1.9231 40  3    4.3480
 41  1    1.1095 41  2    1.9248 41  3    2.2230 42  1    1.1076 42  2    1.9002
 42  3    0.1428 43  1    1.0281 43  2    0.7926 43  3    0.1368
 grad
      -0.00000   -0.00000   -0.00000  -13.25501    0.00000    0.00000   19.16609  -44.82871
       0.00000  -10.87745  106.34157  176.23093   73.22006 -237.07972 -352.78606  -42.40159
      -1.27145   10.51829  -18.41744  335.66645    4.30364   16.53785  -10.06694   15.48147
       9.83117   23.31805   -2.87454   17.62604  -34.69146  -30.95720  -29.28587    6.74152
      27.34319  -81.42145  -32.64944   14.68213   83.25055 -179.31866   -1.09738  -11.07211
     -25.16833  -25.72580  -64.78076  -91.62881    4.40840   20.97935   -9.49805   -4.14397
     -22.29971  -38.97672    0.40822   -1.53305   84.78639    8.07077  -17.80708   14.58118
       2.72552  -10.74309   -3.40910   -0.33569  -24.13172  -24.06638    0.36374   -4.91890
       0.23643    3.26462    3.13043    0.78764   -2.40637   -0.04987    1.35040   -4.56051
       1.03747    1.65102   -2.47616    0.31860   -3.13431   -4.51189    0.22258   10.79556
       0.00263   -3.09614   11.64887   -1.01415   10.61543   13.00421    2.14405   -7.59308
       6.06495   -3.26200    4.24623   17.05471   -2.53455   -8.86981   13.86986    0.10840
      -4.54026   -5.92930   -0.63171   -4.07365   -2.76029    0.46585   -6.47227    0.70828
       0.04576    1.78197   -2.69780    0.50809    2.27120    4.70643   -0.93129    3.41766
       4.84610    0.77771    2.09243    4.96107    1.98218    5.02853   -1.94947   -0.53286
       5.17315   -2.00815    0.49522    6.01470   15.31695    0.07877 -128.14961    7.70640
       4.04915
 CYCLE:     2 TIME:   0.070 TIME LEFT:  2.00D  GRAD.:   665.190 HEAT:  216.0513

          HESSIAN HAS  0 NEGATIVE EIGENVALUE(S)
  MIN SEARCH, CORRECT HESSIAN, TRYING PURE NR STEP
 LAMBDA THAT MINIMIZES ALONG ALL MODES =        0.000000000
 PURE NR-STEP HAS LENGTH   3.66306
 LAMBDA THAT MINIMIZES ALONG ALL MODES =     -234.689240303
 P-RFO-STEP   HAS LENGTH   0.84760
 LAMBDA THAT MINIMIZES ALONG ALL MODES =    -5530.414907287
 QA/TRIM-STEP HAS LENGTH   0.05000

  HEAT OF FORMATION        215.53648561718001    
 PARAMETERS       -0.008   0.001   0.001   2.875  -0.006  -0.001   2.817   1.917
  -0.001   5.143   1.910   4.235   2.381   1.560   3.984   1.392   1.454   3.283

   1.511   1.181   2.088   1.567   2.338   3.941   1.523   1.976   5.801   1.517

   1.932   0.347   1.343   2.032   5.195   1.550   1.278   5.126   1.410   2.321

   3.181   1.406   1.442   2.893   1.549   1.247   1.447   1.340   2.158   5.592

   1.350   1.061   4.375   1.395   2.039   3.094   1.404   2.100   6.256   1.493

   1.506   3.281   1.387   3.061   1.094   1.116   1.830   3.744   1.110   1.911

   1.551   1.109   1.894   5.807   1.111   1.939   5.264   1.112   1.873   3.214

   1.084   2.071   2.400   1.115   1.908   3.898   1.141   1.996   1.961   1.116

   1.917   2.649   1.140   2.029   4.326   1.117   1.896   2.430   1.086   2.073

   3.064   1.084   2.098   3.130   1.083   2.068   3.153   1.110   1.980   6.221

   1.111   1.932   4.102   1.110   1.949   2.087   0.992   2.855   0.715   1.109

   1.923   4.348   1.108   1.925   2.223   1.106   1.897   0.143   1.052   0.791

   0.136
 GRADIENT         -0.000  -0.000  -0.000  -4.220   0.000   0.000  88.978  76.586
   0.000   1.877  -4.106-222.442 -52.010 145.873 455.602 -38.808  -4.005 -24.637

-117.829-708.018 -25.761  26.228  67.508 -29.359  10.206  18.450 -11.274  23.331

  25.551  27.854  -3.051   4.534   9.473 -44.129 -79.134  -7.048-182.954 477.815

  24.593 -15.539 -10.698  17.099 -76.151 -12.686 -27.427  -2.457  22.613  -0.165

  87.670 161.920  -1.849 -69.576-455.895  -4.722  78.068-230.438   2.798  -7.913

  -2.671   2.164 -21.271 -18.631   0.320  -2.467  -0.854   5.300  -5.774   8.628

   8.069  -4.058   4.885  -7.166   0.764   1.520  -2.808  -0.235  -2.776  -4.701

  -0.391   9.715   0.392  -4.694  12.813   0.137   7.285  15.130   0.265  -3.194

   3.287  -6.787   9.435  14.397  -6.639  -3.784  12.645   2.783  -2.907  -7.440

  -0.563  -3.997  -1.725   0.390 -17.684  12.306  -0.051   1.515  -2.673   0.953

   1.888   4.755  -0.884   2.973   4.683   0.620   1.746   5.295   2.072   4.431

  -1.824  -1.005   4.515  -1.919   1.002   5.335  15.012   0.074-110.597   8.791

  -4.797
       HoF         ACTUAL,  PREDICTED ENERGY CHANGE, RATIO
   215.5364856    -0.5148344         -18.1021343    0.0284405
     STEPSIZE USED IS  0.05000
 CALCULATED STEP
    -0.003289  0.000435 -0.000267 -0.001240 -0.002522 -0.000378  0.000616 -0.000040
    -0.000490 -0.008357 -0.005052 -0.006612  0.006067  0.005631  0.017031  0.006531
    -0.000544 -0.002853 -0.006117 -0.008393  0.000096 -0.003525  0.003276 -0.003082
    -0.002676 -0.005066  0.000351 -0.005852 -0.000064  0.001416  0.001466 -0.000763
    -0.001239  0.014326  0.003883 -0.005012 -0.010021  0.008518 -0.000786  0.001322
     0.003814  0.001079  0.014782  0.005542  0.004200 -0.003448 -0.002007  0.000476
    -0.003157  0.011677 -0.000203 -0.005666 -0.010984 -0.001279  0.000037 -0.004766
    -0.000614  0.000833 -0.000018 -0.000477  0.004214  0.003555 -0.000504  0.000760
    -0.000180 -0.000543 -0.000850 -0.000454  0.000080 -0.000553 -0.000045  0.000257
    -0.000430 -0.000427  0.000305 -0.000418  0.000452  0.000652 -0.000383 -0.002123
    -0.000114  0.000395 -0.002054  0.000009 -0.002329 -0.002123 -0.000748  0.000924
    -0.001176  0.000712 -0.001667 -0.002578  0.000924  0.000946 -0.002267 -0.000377
     0.000338  0.001157  0.000039  0.000480  0.000018 -0.000171  0.000607  0.000257
    -0.000106 -0.000515  0.000398 -0.000229 -0.000667 -0.000951  0.000067 -0.000927
    -0.001001 -0.000247 -0.000504 -0.000986 -0.000455 -0.001166  0.000257 -0.000002
    -0.001244  0.000229 -0.000205 -0.001498 -0.002977 -0.000119  0.023976 -0.002002
    -0.000254
     NEW TRUST RADIUS =  0.05000
*REMARK   3 HET = Not identified; C 17 H 22 N O 3    =    43 atoms res:    1
 PM7 CHARGE=+1 EF NOXYZ PRNT=2 PDBOUT COMPFG GRAPHF
 (1S,12S,14R)-9-methoxy-4-methyl-11-oxa-4-azoniatetracyclo[8.6.1.01,12.06,17]heptadeca-6(17),7,9,15-tetraen-14-ol

  O(HETATM    1  O1  HET A   1)  -0.00784658 +1    0.0010472 +1    0.0007369 +1
  O(HETATM    2  O2  HET A   1)   2.87455906 +1   -0.3294350 +1   -0.0372659 +1     1     0     0
  O(HETATM    3  O3  HET A   1)   2.81696282 +1  109.8639625 +1   -0.0633221 +1     1     2     0
  N(HETATM    4  N   HET A   1)   5.14309475 +1  109.4597959 +1 -117.3530186 +1     1     2     3
  C(HETATM    5  C1  HET A   1)   2.38130619 +1   89.3580786 +1 -131.7052779 +1     1     2     3
  C(HETATM    6  C2  HET A   1)   1.39201194 +1   83.2903664 +1 -171.8833968 +1     1     2     3
  C(HETATM    7  C3  HET A   1)   1.51113232 +1   67.6631266 +1  119.6490282 +1     5     1     2
  C(HETATM    8  C4  HET A   1)   1.56695243 +1  133.9501516 +1 -134.2232035 +1     5     1     2
  C(HETATM    9  C5  HET A   1)   1.52251156 +1  113.2358931 +1  -27.6462259 +1     6     1     2
  C(HETATM   10  C6  HET A   1)   1.51717666 +1  110.6849899 +1   19.8695471 +1     5     1     2
  C(HETATM   11  C7  HET A   1)   1.34267772 +1  116.3994770 +1  -62.3554311 +1     1     2     3
  C(HETATM   12  C8  HET A   1)   1.55031498 +1   73.2249746 +1  -66.2765649 +1     4     1     2
  C(HETATM   13  C9  HET A   1)   1.41027763 +1  132.9759103 +1 -177.7585115 +1     7     5     1
  C(HETATM   14  C10 HET A   1)   1.40584031 +1   82.6089575 +1  165.7653047 +1     2     1     3
  C(HETATM   15  C11 HET A   1)   1.54919580 +1   71.4424058 +1   82.9326908 +1     4     1     2
  C(HETATM   16  C12 HET A   1)   1.33976444 +1  123.6708562 +1  -39.5952713 +1    10     5     1
  C(HETATM   17  C13 HET A   1)   1.34998334 +1   60.8084621 +1 -109.3572652 +1     3     1     2
  C(HETATM   18  C14 HET A   1)   1.39471348 +1  116.8023428 +1  177.2578519 +1    13     7     5
  C(HETATM   19  C15 HET A   1)   1.40396832 +1  120.3325171 +1   -1.5640782 +1    18    13     7
  C(HETATM   20  C16 HET A   1)   1.49298450 +1   86.2752617 +1 -171.9956478 +1     4     1     2
  C(HETATM   21  C17 HET A   1)   1.38711154 +1  175.3820064 +1   62.6898719 +1     3     1     2
  H(HETATM   22 1H2  HET A   1)   1.11585869 +1  104.8264730 +1 -145.4924128 +1     6     1     2
  H(HETATM   23 1H4  HET A   1)   1.10971555 +1  109.4791454 +1   88.8385548 +1     8     5     1
  H(HETATM   24 2H4  HET A   1)   1.10863811 +1  108.5301035 +1  -27.2609206 +1     8     5     1
  H(HETATM   25 1H5  HET A   1)   1.11098750 +1  111.0783160 +1  -58.3739443 +1     9     6     1
  H(HETATM   26 2H5  HET A   1)   1.11195611 +1  107.3178509 +1 -175.8707333 +1     9     6     1
  H(HETATM   27  H6  HET A   1)   1.08449321 +1  118.6697923 +1  137.5037104 +1    10     5     1
  H(HETATM   28 1H8  HET A   1)   1.11498286 +1  109.3025449 +1 -136.6777316 +1    12     4     1
  H(HETATM   29 2H8  HET A   1)   1.14103660 +1  114.3657052 +1  112.3768498 +1    12     4     1
  H(HETATM   30  H10 HET A   1)   1.11642632 +1  109.8632898 +1  151.7696068 +1    14     2     1
  H(HETATM   31 1H11 HET A   1)   1.14024699 +1  116.2774130 +1 -112.1660654 +1    15     4     1
  H(HETATM   32 2H11 HET A   1)   1.11658717 +1  108.6481097 +1  139.2192351 +1    15     4     1
  H(HETATM   33  H12 HET A   1)   1.08642917 +1  118.7951825 +1  175.5626105 +1    16    10     5
  H(HETATM   34  H14 HET A   1)   1.08372552 +1  120.2113777 +1  179.3201966 +1    18    13     7
  H(HETATM   35  H15 HET A   1)   1.08282813 +1  118.4985739 +1 -179.3622505 +1    19    18    13
  H(HETATM   36 1H16 HET A   1)   1.10950286 +1  113.4224047 +1   -3.5464237 +1    20     4     1
  H(HETATM   37 2H16 HET A   1)   1.11106183 +1  110.6930877 +1 -124.9703021 +1    20     4     1
  H(HETATM   38 3H16 HET A   1)   1.11042662 +1  111.6701624 +1  119.5783406 +1    20     4     1
  H(HETATM   39 2H2  HET A   1)   0.99177418 +1  163.5783472 +1   40.9939538 +1     2     1     3
  H(HETATM   40 1H17 HET A   1)   1.10881424 +1  110.1984880 +1 -110.8789986 +1    21     3     1
  H(HETATM   41 2H17 HET A   1)   1.10825184 +1  110.2979076 +1  127.3581435 +1    21     3     1
  H(HETATM   42 3H17 HET A   1)   1.10605905 +1  108.7040958 +1    8.1765072 +1    21     3     1
  H(HETATM   43  H   HET A   1)   1.05209105 +1   45.2958141 +1    7.8206766 +1     4     1     2

 XPARAM 
  1  1   -0.0078  1  2    0.0010  1  3    0.0007  2  1    2.8746  2  2   -0.0057
  2  3   -0.0007  3  1    2.8170  3  2    1.9175  3  3   -0.0011  4  1    5.1431
  4  2    1.9104  4  3    4.2350  5  1    2.3813  5  2    1.5596  5  3    3.9845
  6  1    1.3920  6  2    1.4537  6  3    3.2833  7  1    1.5111  7  2    1.1809
  7  3    2.0883  8  1    1.5670  8  2    2.3379  8  3    3.9405  9  1    1.5225
  9  2    1.9763  9  3    5.8007 10  1    1.5172 10  2    1.9318 10  3    0.3468
 11  1    1.3427 11  2    2.0316 11  3    5.1949 12  1    1.5503 12  2    1.2780
 12  3    5.1264 13  1    1.4103 13  2    2.3209 13  3    3.1807 14  1    1.4058
 14  2    1.4418 14  3    2.8932 15  1    1.5492 15  2    1.2469 15  3    1.4474
 16  1    1.3398 16  2    2.1585 16  3    5.5921 17  1    1.3500 17  2    1.0613
 17  3    4.3745 18  1    1.3947 18  2    2.0386 18  3    3.0937 19  1    1.4040
 19  2    2.1002 19  3    6.2559 20  1    1.4930 20  2    1.5058 20  3    3.2813
 21  1    1.3871 21  2    3.0610 21  3    1.0941 22  1    1.1159 22  2    1.8296
 22  3    3.7439 23  1    1.1097 23  2    1.9108 23  3    1.5505 24  1    1.1086
 24  2    1.8942 24  3    5.8074 25  1    1.1110 25  2    1.9387 25  3    5.2644
 26  1    1.1120 26  2    1.8730 26  3    3.2137 27  1    1.0845 27  2    2.0712
 27  3    2.3999 28  1    1.1150 28  2    1.9077 28  3    3.8977 29  1    1.1410
 29  2    1.9961 29  3    1.9613 30  1    1.1164 30  2    1.9175 30  3    2.6489
 31  1    1.1402 31  2    2.0294 31  3    4.3255 32  1    1.1166 32  2    1.8963
 32  3    2.4298 33  1    1.0864 33  2    2.0734 33  3    3.0641 34  1    1.0837
 34  2    2.0981 34  3    3.1297 35  1    1.0828 35  2    2.0682 35  3    3.1527
 36  1    1.1095 36  2    1.9796 36  3    6.2213 37  1    1.1111 37  2    1.9320
 37  3    4.1020 38  1    1.1104 38  2    1.9490 38  3    2.0870 39  1    0.9918
 39  2    2.8550 39  3    0.7155 40  1    1.1088 40  2    1.9233 40  3    4.3480
 41  1    1.1083 41  2    1.9251 41  3    2.2228 42  1    1.1061 42  2    1.8972
 42  3    0.1427 43  1    1.0521 43  2    0.7906 43  3    0.1365
 grad
      -0.00000   -0.00000   -0.00000   -4.22008    0.00000    0.00000   88.97783   76.58627
       0.00000    1.87724   -4.10577 -222.44211  -52.01015  145.87288  455.60191  -38.80799
      -4.00458  -24.63711 -117.82934 -708.01818  -25.76125   26.22824   67.50780  -29.35908
      10.20625   18.44961  -11.27388   23.33136   25.55052   27.85430   -3.05103    4.53354
       9.47290  -44.12948  -79.13352   -7.04778 -182.95435  477.81509   24.59332  -15.53869
     -10.69755   17.09914  -76.15064  -12.68570  -27.42658   -2.45723   22.61306   -0.16483
      87.66955  161.91986   -1.84938  -69.57613 -455.89505   -4.72225   78.06843 -230.43785
       2.79811   -7.91276   -2.67078    2.16438  -21.27120  -18.63118    0.32046   -2.46715
      -0.85435    5.29952   -5.77396    8.62802    8.06873   -4.05825    4.88546   -7.16600
       0.76394    1.52008   -2.80800   -0.23515   -2.77643   -4.70060   -0.39067    9.71534
       0.39243   -4.69384   12.81311    0.13672    7.28515   15.13048    0.26540   -3.19435
       3.28667   -6.78668    9.43455   14.39708   -6.63941   -3.78365   12.64489    2.78284
      -2.90652   -7.43979   -0.56342   -3.99660   -1.72462    0.39016  -17.68420   12.30570
      -0.05058    1.51474   -2.67308    0.95277    1.88839    4.75466   -0.88384    2.97350
       4.68277    0.62045    1.74594    5.29543    2.07168    4.43050   -1.82441   -1.00504
       4.51518   -1.91882    1.00152    5.33490   15.01170    0.07366 -110.59697    8.79086
      -4.79695
 CYCLE:     3 TIME:   0.031 TIME LEFT:  2.00D  GRAD.:  1192.302 HEAT:  215.5365

          HESSIAN HAS  0 NEGATIVE EIGENVALUE(S)
  MIN SEARCH, CORRECT HESSIAN, TRYING PURE NR STEP
 LAMBDA THAT MINIMIZES ALONG ALL MODES =        0.000000000
 PURE NR-STEP HAS LENGTH   0.94412
 LAMBDA THAT MINIMIZES ALONG ALL MODES =     -163.159629448
 P-RFO-STEP   HAS LENGTH   0.54339
 LAMBDA THAT MINIMIZES ALONG ALL MODES =    -5554.326426814
 QA/TRIM-STEP HAS LENGTH   0.05000

  HEAT OF FORMATION        206.10390339084552    
 PARAMETERS       -0.009  -0.002   0.001   2.875  -0.007  -0.001   2.807   1.916
  -0.001   5.142   1.900   4.231   2.377   1.572   3.990   1.397   1.452   3.284

   1.519   1.193   2.089   1.562   2.332   3.941   1.520   1.970   5.802   1.512

   1.932   0.348   1.344   2.028   5.191   1.560   1.284   5.125   1.412   2.305

   3.179   1.407   1.443   2.895   1.559   1.255   1.449   1.336   2.156   5.593

   1.346   1.052   4.374   1.397   2.058   3.093   1.400   2.112   6.255   1.493

   1.504   3.281   1.388   3.063   1.094   1.116   1.829   3.743   1.109   1.909

   1.550   1.109   1.893   5.808   1.110   1.938   5.265   1.111   1.873   3.214

   1.084   2.069   2.400   1.115   1.905   3.898   1.139   1.993   1.961   1.117

   1.916   2.650   1.139   2.026   4.326   1.117   1.893   2.430   1.087   2.074

   3.064   1.084   2.098   3.130   1.084   2.067   3.153   1.109   1.979   6.221

   1.110   1.930   4.102   1.109   1.948   2.087   0.991   2.853   0.715   1.108

   1.923   4.348   1.107   1.925   2.223   1.105   1.894   0.143   1.071   0.789

   0.136
 GRADIENT         -0.000  -0.000  -0.000   0.973   0.000   0.000  -3.214 -34.628
   0.000   2.973 -98.207-251.317  32.857 173.033 257.544 -32.506 -22.069 -28.033

  60.953  97.986  15.262  20.592  50.743 -39.717   9.965  11.244  -7.578  20.301

  63.044  55.312 -23.819  -5.973 -21.050 -28.122 -60.673  10.014  64.090 -87.573

  -8.214 -17.000  -2.014  45.706 -65.505  -6.225 -36.539 -21.289  36.307  -0.867

 -22.364 -68.518   0.566  32.171 123.176   4.177 -20.854  59.796   0.252  -6.707

  -3.925   3.198 -20.258 -21.562   0.323  -2.304  -0.811   4.287 -10.122  11.473

  14.811  -0.792   0.264  -0.994   0.012   1.865  -2.661  -1.413  -2.364  -5.637

  -1.084   8.079   0.512  -4.112  12.305   0.566   9.612  11.913   4.278  -0.592

   1.603  -9.917  11.356  12.971  -9.162  -3.617  13.527   0.967  -2.360  -7.911

  -0.796  -4.443  -0.476   0.222  -1.821  -4.386  -0.007   1.241  -3.187   1.358

   1.541   4.644  -0.944   2.503   4.505   0.569   1.119   5.444   2.044   3.879

  -1.586  -0.647   3.893  -1.600   0.619   4.299  14.595   0.073 -96.570   9.868

  -6.944
       HoF         ACTUAL,  PREDICTED ENERGY CHANGE, RATIO
   206.1039034    -9.4325822         -23.0265099    0.4096401
     STEPSIZE USED IS  0.05000
 CALCULATED STEP
    -0.001108 -0.003222 -0.000027  0.000458 -0.001055 -0.000528 -0.009506 -0.001686
    -0.000334 -0.001051 -0.010070 -0.003728 -0.004401  0.012489  0.005108  0.005286
    -0.001737  0.000500  0.007368  0.011618  0.001197 -0.005004 -0.005477  0.000353
    -0.002886 -0.005883  0.001005 -0.005285 -0.000055  0.001228  0.001563 -0.003289
    -0.003611  0.009896  0.006443 -0.001213  0.001395 -0.015889 -0.001651  0.000713
     0.001219  0.001404  0.009881  0.008210  0.001305 -0.003299 -0.002936  0.000403
    -0.004385 -0.008890 -0.000053  0.002496  0.019588 -0.000587 -0.004432  0.011451
    -0.000546  0.000205 -0.001534 -0.000240  0.001137  0.001760 -0.000040  0.000220
    -0.000648 -0.000728 -0.000488 -0.001292 -0.000320 -0.000116 -0.001186  0.000974
    -0.000535 -0.000987  0.000450 -0.000479 -0.000160  0.000796 -0.000527 -0.002419
    -0.000032  0.000166 -0.002737  0.000088 -0.002041 -0.002979 -0.000254  0.000455
    -0.001500  0.000811 -0.001473 -0.003396  0.000726  0.000604 -0.002918 -0.000217
     0.000121  0.000442  0.000102  0.000151 -0.000280 -0.000080  0.001223 -0.001555
    -0.000006 -0.000622 -0.000280 -0.000128 -0.000773 -0.001492  0.000151 -0.001041
    -0.001456 -0.000134 -0.001043 -0.001500 -0.000336 -0.001193 -0.000372  0.000118
    -0.001301 -0.000312 -0.000132 -0.001519 -0.003184 -0.000023  0.019214 -0.002003
    -0.000126
     NEW TRUST RADIUS =  0.05000
*REMARK   3 HET = Not identified; C 17 H 22 N O 3    =    43 atoms res:    1
 PM7 CHARGE=+1 EF NOXYZ PRNT=2 PDBOUT COMPFG GRAPHF
 (1S,12S,14R)-9-methoxy-4-methyl-11-oxa-4-azoniatetracyclo[8.6.1.01,12.06,17]heptadeca-6(17),7,9,15-tetraen-14-ol

  O(HETATM    1  O1  HET A   1)  -0.00895429 +1   -0.0021743 +1    0.0007102 +1
  O(HETATM    2  O2  HET A   1)   2.87501745 +1   -0.3899032 +1   -0.0675334 +1     1     0     0
  O(HETATM    3  O3  HET A   1)   2.80745695 +1  109.7673512 +1   -0.0824588 +1     1     2     0
  N(HETATM    4  N   HET A   1)   5.14204325 +1  108.8828131 +1 -117.5666362 +1     1     2     3
  C(HETATM    5  C1  HET A   1)   2.37690518 +1   90.0736616 +1 -131.4126136 +1     1     2     3
  C(HETATM    6  C2  HET A   1)   1.39729781 +1   83.1908588 +1 -171.8547700 +1     1     2     3
  C(HETATM    7  C3  HET A   1)   1.51850027 +1   68.3287899 +1  119.7175993 +1     5     1     2
  C(HETATM    8  C4  HET A   1)   1.56194841 +1  133.6363507 +1 -134.2029603 +1     5     1     2
  C(HETATM    9  C5  HET A   1)   1.51962573 +1  112.8988393 +1  -27.5886697 +1     6     1     2
  C(HETATM   10  C6  HET A   1)   1.51189130 +1  110.6818579 +1   19.9398970 +1     5     1     2
  C(HETATM   11  C7  HET A   1)   1.34424093 +1  116.2110060 +1  -62.5623147 +1     1     2     3
  C(HETATM   12  C8  HET A   1)   1.56021069 +1   73.5941488 +1  -66.3460498 +1     4     1     2
  C(HETATM   13  C9  HET A   1)   1.41167275 +1  132.0655248 +1 -177.8531213 +1     7     5     1
  C(HETATM   14  C10 HET A   1)   1.40655315 +1   82.6787793 +1  165.8457662 +1     2     1     3
  C(HETATM   15  C11 HET A   1)   1.55907636 +1   71.9127998 +1   83.0074371 +1     4     1     2
  C(HETATM   16  C12 HET A   1)   1.33646591 +1  123.5026441 +1  -39.5721762 +1    10     5     1
  C(HETATM   17  C13 HET A   1)   1.34559820 +1   60.2991282 +1 -109.3603022 +1     3     1     2
  C(HETATM   18  C14 HET A   1)   1.39720979 +1  117.9246340 +1  177.2241962 +1    13     7     5
  C(HETATM   19  C15 HET A   1)   1.39953616 +1  120.9886200 +1   -1.5953363 +1    18    13     7
  C(HETATM   20  C16 HET A   1)   1.49318956 +1   86.1873878 +1 -172.0094268 +1     4     1     2
  C(HETATM   21  C17 HET A   1)   1.38824885 +1  175.4828264 +1   62.6875717 +1     3     1     2
  H(HETATM   22 1H2  HET A   1)   1.11607837 +1  104.7893444 +1 -145.5341373 +1     6     1     2
  H(HETATM   23 1H4  HET A   1)   1.10922744 +1  109.4051435 +1   88.8201934 +1     8     5     1
  H(HETATM   24 2H4  HET A   1)   1.10852258 +1  108.4621315 +1  -27.2051017 +1     8     5     1
  H(HETATM   25 1H5  HET A   1)   1.11045246 +1  111.0217412 +1  -58.3481779 +1     9     6     1
  H(HETATM   26 2H5  HET A   1)   1.11147735 +1  107.3086798 +1 -175.8251264 +1     9     6     1
  H(HETATM   27  H6  HET A   1)   1.08396597 +1  118.5311874 +1  137.5018578 +1    10     5     1
  H(HETATM   28 1H8  HET A   1)   1.11514871 +1  109.1457346 +1 -136.6727002 +1    12     4     1
  H(HETATM   29 2H8  HET A   1)   1.13899599 +1  114.1950439 +1  112.3622752 +1    12     4     1
  H(HETATM   30  H10 HET A   1)   1.11688159 +1  109.7773555 +1  151.8160744 +1    14     2     1
  H(HETATM   31 1H11 HET A   1)   1.13877407 +1  116.0828319 +1 -112.1244874 +1    15     4     1
  H(HETATM   32 2H11 HET A   1)   1.11719073 +1  108.4809411 +1  139.2068140 +1    15     4     1
  H(HETATM   33  H12 HET A   1)   1.08655031 +1  118.8204978 +1  175.5684385 +1    16    10     5
  H(HETATM   34  H14 HET A   1)   1.08387627 +1  120.1953343 +1  179.3155856 +1    18    13     7
  H(HETATM   35  H15 HET A   1)   1.08405110 +1  118.4094693 +1 -179.3625859 +1    19    18    13
  H(HETATM   36 1H16 HET A   1)   1.10888126 +1  113.4063594 +1   -3.5537786 +1    20     4     1
  H(HETATM   37 2H16 HET A   1)   1.11028845 +1  110.6076278 +1 -124.9616296 +1    20     4     1
  H(HETATM   38 3H16 HET A   1)   1.10938547 +1  111.5867249 +1  119.5706426 +1    20     4     1
  H(HETATM   39 2H2  HET A   1)   0.99073135 +1  163.4923941 +1   40.9746770 +1     2     1     3
  H(HETATM   40 1H17 HET A   1)   1.10762169 +1  110.1771896 +1 -110.8722602 +1    21     3     1
  H(HETATM   41 2H17 HET A   1)   1.10695106 +1  110.2800197 +1  127.3505999 +1    21     3     1
  H(HETATM   42 3H17 HET A   1)   1.10454023 +1  108.5216421 +1    8.1751799 +1    21     3     1
  H(HETATM   43  H   HET A   1)   1.07130489 +1   45.1810489 +1    7.8134624 +1     4     1     2

 XPARAM 
  1  1   -0.0090  1  2   -0.0022  1  3    0.0007  2  1    2.8750  2  2   -0.0068
  2  3   -0.0012  3  1    2.8075  3  2    1.9158  3  3   -0.0014  4  1    5.1420
  4  2    1.9004  4  3    4.2313  5  1    2.3769  5  2    1.5721  5  3    3.9896
  6  1    1.3973  6  2    1.4520  6  3    3.2838  7  1    1.5185  7  2    1.1926
  7  3    2.0895  8  1    1.5619  8  2    2.3324  8  3    3.9409  9  1    1.5196
  9  2    1.9705  9  3    5.8017 10  1    1.5119 10  2    1.9318 10  3    0.3480
 11  1    1.3442 11  2    2.0283 11  3    5.1913 12  1    1.5602 12  2    1.2845
 12  3    5.1252 13  1    1.4117 13  2    2.3050 13  3    3.1791 14  1    1.4066
 14  2    1.4430 14  3    2.8946 15  1    1.5591 15  2    1.2551 15  3    1.4488
 16  1    1.3365 16  2    2.1555 16  3    5.5925 17  1    1.3456 17  2    1.0524
 17  3    4.3745 18  1    1.3972 18  2    2.0582 18  3    3.0931 19  1    1.3995
 19  2    2.1116 19  3    6.2553 20  1    1.4932 20  2    1.5043 20  3    3.2811
 21  1    1.3882 21  2    3.0628 21  3    1.0941 22  1    1.1161 22  2    1.8289
 22  3    3.7431 23  1    1.1092 23  2    1.9095 23  3    1.5502 24  1    1.1085
 24  2    1.8930 24  3    5.8084 25  1    1.1105 25  2    1.9377 25  3    5.2648
 26  1    1.1115 26  2    1.8729 26  3    3.2145 27  1    1.0840 27  2    2.0688
 27  3    2.3999 28  1    1.1151 28  2    1.9050 28  3    3.8978 29  1    1.1390
 29  2    1.9931 29  3    1.9611 30  1    1.1169 30  2    1.9160 30  3    2.6497
 31  1    1.1388 31  2    2.0260 31  3    4.3262 32  1    1.1172 32  2    1.8933
 32  3    2.4296 33  1    1.0866 33  2    2.0738 33  3    3.0642 34  1    1.0839
 34  2    2.0978 34  3    3.1296 35  1    1.0841 35  2    2.0666 35  3    3.1527
 36  1    1.1089 36  2    1.9793 36  3    6.2212 37  1    1.1103 37  2    1.9305
 37  3    4.1022 38  1    1.1094 38  2    1.9476 38  3    2.0869 39  1    0.9907
 39  2    2.8535 39  3    0.7151 40  1    1.1076 40  2    1.9230 40  3    4.3481
 41  1    1.1070 41  2    1.9247 41  3    2.2227 42  1    1.1045 42  2    1.8941
 42  3    0.1427 43  1    1.0713 43  2    0.7886 43  3    0.1364
 grad
      -0.00000   -0.00000   -0.00000    0.97291    0.00000    0.00000   -3.21386  -34.62844
       0.00000    2.97342  -98.20685 -251.31743   32.85709  173.03294  257.54402  -32.50624
     -22.06850  -28.03288   60.95270   97.98650   15.26237   20.59166   50.74285  -39.71716
       9.96483   11.24400   -7.57823   20.30092   63.04411   55.31151  -23.81875   -5.97292
     -21.04994  -28.12231  -60.67311   10.01363   64.09020  -87.57323   -8.21360  -17.00022
      -2.01364   45.70575  -65.50473   -6.22472  -36.53890  -21.28912   36.30722   -0.86721
     -22.36401  -68.51850    0.56634   32.17141  123.17579    4.17748  -20.85353   59.79588
       0.25158   -6.70722   -3.92532    3.19777  -20.25759  -21.56200    0.32319   -2.30420
      -0.81145    4.28726  -10.12212   11.47266   14.81102   -0.79160    0.26382   -0.99397
       0.01155    1.86548   -2.66108   -1.41306   -2.36446   -5.63684   -1.08369    8.07923
       0.51154   -4.11234   12.30517    0.56555    9.61226   11.91330    4.27838   -0.59199
       1.60265   -9.91734   11.35575   12.97069   -9.16229   -3.61652   13.52699    0.96725
      -2.35985   -7.91088   -0.79611   -4.44321   -0.47637    0.22153   -1.82093   -4.38591
      -0.00737    1.24089   -3.18737    1.35844    1.54081    4.64407   -0.94419    2.50310
       4.50504    0.56869    1.11924    5.44399    2.04402    3.87943   -1.58576   -0.64739
       3.89347   -1.60009    0.61903    4.29906   14.59496    0.07322  -96.57011    9.86799
      -6.94395
 CYCLE:     4 TIME:   0.031 TIME LEFT:  2.00D  GRAD.:   514.649 HEAT:  206.1039

          HESSIAN HAS  0 NEGATIVE EIGENVALUE(S)
  MIN SEARCH, CORRECT HESSIAN, TRYING PURE NR STEP
 LAMBDA THAT MINIMIZES ALONG ALL MODES =        0.000000000
 PURE NR-STEP HAS LENGTH   0.89404
 LAMBDA THAT MINIMIZES ALONG ALL MODES =     -197.533866227
 P-RFO-STEP   HAS LENGTH   0.53927
 LAMBDA THAT MINIMIZES ALONG ALL MODES =    -7949.441644487
 QA/TRIM-STEP HAS LENGTH   0.05000

  HEAT OF FORMATION        211.54385842272313    
 PARAMETERS       -0.013  -0.001   0.002   2.871  -0.008  -0.002   2.803   1.918
  -0.002   5.143   1.907   4.256   2.374   1.556   3.960   1.401   1.455   3.287

   1.514   1.191   2.088   1.560   2.327   3.945   1.520   1.970   5.803   1.508

   1.926   0.342   1.348   2.030   5.193   1.565   1.293   5.124   1.408   2.309

   3.180   1.408   1.444   2.890   1.566   1.258   1.453   1.340   2.153   5.593

   1.346   1.058   4.375   1.396   2.054   3.093   1.402   2.111   6.255   1.494

   1.505   3.281   1.390   3.066   1.094   1.116   1.829   3.743   1.110   1.908

   1.549   1.109   1.893   5.809   1.111   1.938   5.265   1.112   1.873   3.215

   1.084   2.068   2.400   1.116   1.904   3.898   1.138   1.992   1.961   1.117

   1.916   2.651   1.138   2.025   4.327   1.118   1.892   2.430   1.087   2.075

   3.064   1.084   2.098   3.130   1.085   2.067   3.153   1.109   1.980   6.221

   1.110   1.930   4.102   1.109   1.947   2.087   0.990   2.853   0.715   1.107

   1.923   4.348   1.106   1.925   2.223   1.103   1.892   0.143   1.083   0.788

   0.137
 GRADIENT         -0.000  -0.000  -0.000 -11.239   0.000   0.000  16.822 -57.145
   0.000 -11.318 110.829 446.133  56.149-351.202-737.875 -25.493  -7.874  36.746

 -43.602 546.882  23.907   1.859 -76.901  38.729   3.797  20.026   8.076 -18.500

-115.348-101.402 -18.947   2.375  27.733 -60.413  22.631  34.613  97.583-314.671

 -18.087   0.669 -17.270 -71.352 -15.908-103.632  26.745  30.508 -67.876  -7.146

 -43.613 -49.030  -1.380 -18.547 151.027   1.739 -29.939  36.652  -0.500  -5.041

  -0.836  -2.794 -19.638 -22.163   0.292  -4.179   1.859   1.297   5.386  -3.496

  -6.050   4.331  -4.976   3.135   0.170   1.582  -2.338  -0.981  -3.053  -5.313

  -1.065   8.128  -0.123   2.276  10.896  -3.692  14.237  10.018   7.056  -7.800

   6.192  -1.585   4.578  16.375  -3.866  -5.760  13.655   1.163  -8.467  -0.450

  -0.573  -4.504  -4.649   0.366  -3.622  -1.161  -0.132   1.616  -2.857   0.044

   1.729   4.513  -0.874   2.286   4.755   0.931   0.638   5.269   2.188   3.806

  -1.546  -0.601   3.641  -1.565   0.536   3.563  14.312   0.083 -88.217   9.283

  10.014
       HoF         ACTUAL,  PREDICTED ENERGY CHANGE, RATIO
   211.5438584     5.4399550         -22.0259962   -0.2469788
 UNACCEPTABLE RATIO, REJECTING STEP, REDUCING DMAX TO 0.0250
  MIN SEARCH, CORRECT HESSIAN, TRYING PURE NR STEP
 LAMBDA THAT MINIMIZES ALONG ALL MODES =        0.000000000
 PURE NR-STEP HAS LENGTH   0.89404
 LAMBDA THAT MINIMIZES ALONG ALL MODES =     -197.533866227
 P-RFO-STEP   HAS LENGTH   0.53927
 LAMBDA THAT MINIMIZES ALONG ALL MODES =   -17486.572806954
 QA/TRIM-STEP HAS LENGTH   0.02500

  HEAT OF FORMATION        201.10393554651819    
 PARAMETERS       -0.011  -0.001   0.001   2.873  -0.007  -0.001   2.806   1.917
  -0.002   5.142   1.904   4.243   2.375   1.564   3.975   1.399   1.454   3.285

   1.516   1.191   2.089   1.561   2.330   3.943   1.520   1.970   5.802   1.510

   1.929   0.345   1.346   2.029   5.192   1.562   1.289   5.125   1.410   2.307

   3.179   1.407   1.444   2.892   1.562   1.256   1.451   1.338   2.154   5.593

   1.346   1.055   4.375   1.396   2.055   3.093   1.401   2.111   6.255   1.493

   1.505   3.281   1.389   3.064   1.094   1.116   1.829   3.743   1.110   1.909

   1.549   1.109   1.893   5.809   1.111   1.938   5.265   1.112   1.873   3.215

   1.084   2.068   2.400   1.115   1.904   3.898   1.138   1.993   1.961   1.117

   1.916   2.650   1.138   2.025   4.327   1.117   1.893   2.430   1.087   2.074

   3.064   1.084   2.098   3.130   1.084   2.067   3.153   1.109   1.980   6.221

   1.110   1.930   4.102   1.109   1.947   2.087   0.991   2.853   0.715   1.107

   1.923   4.348   1.107   1.925   2.223   1.104   1.893   0.143   1.077   0.788

   0.137
 GRADIENT         -0.000  -0.000  -0.000  -4.493   0.000   0.000   9.469 -43.812
   0.000  11.987  -2.296  98.520  34.218 -61.763-225.264 -29.695 -14.366   1.544

   4.822 278.539  18.939   7.174 -23.519   3.016   7.021  15.704  -0.488   3.973

 -12.329 -10.454 -21.756  -1.345   5.163 -46.869 -10.316  24.083  68.185-174.885

 -11.926 -10.959  -9.238  -3.352 -43.151 -44.385  -7.482   0.689  -7.316  -3.333

 -30.788 -52.925  -0.463   5.995 120.178   2.899 -23.528  40.638  -0.037  -5.739

  -1.883  -0.054 -19.928 -21.894   0.306  -3.171   0.430   2.894  -1.275   3.209

   3.400   1.761  -2.299   0.703   0.122   1.716  -2.505  -1.150  -2.690  -5.423

  -1.025   8.143   0.204  -0.936  11.734  -1.476  11.851  11.114   5.470  -3.923

   3.805  -5.880   7.961  14.831  -6.506  -4.777  13.520   1.055  -5.146  -4.385

  -0.700  -4.285  -2.085   0.267  -3.242  -2.195  -0.073   1.437  -2.912   0.639

   1.631   4.577  -0.914   2.403   4.635   0.757   0.938   5.345   2.112   3.871

  -1.571  -0.626   3.802  -1.589   0.578   3.978  14.472   0.078 -93.023  10.506

   1.429
       HoF         ACTUAL,  PREDICTED ENERGY CHANGE, RATIO
   201.1039355    -4.9999678         -11.6089659    0.4306988
     STEPSIZE USED IS  0.02500
 CALCULATED STEP
    -0.001888  0.000916  0.000654 -0.001879 -0.000434 -0.000263 -0.001545  0.000970
    -0.000404  0.000215  0.003414  0.012151 -0.001460 -0.008495 -0.014534  0.001720
     0.001573  0.001600 -0.002640 -0.001305 -0.000579 -0.000845 -0.002456  0.002083
     0.000153 -0.000112  0.000445 -0.001941 -0.002934 -0.002819  0.001811  0.000866
     0.000952  0.002060  0.004062 -0.000423 -0.001937  0.002402  0.000285  0.000648
     0.000643 -0.002229  0.002977  0.000910  0.001955  0.001713 -0.001219  0.000087
     0.000544  0.002977  0.000095 -0.001028 -0.003048 -0.000174  0.001430 -0.000879
    -0.000012  0.000238  0.000637 -0.000127  0.001008  0.001525 -0.000062  0.000164
     0.000221 -0.000216  0.000378 -0.000484 -0.000744  0.000266  0.000173  0.000137
     0.000153  0.000105  0.000187  0.000060  0.000305  0.000351  0.000003 -0.000324
     0.000005  0.000282 -0.000526  0.000007 -0.000623 -0.000569 -0.000186  0.000017
     0.000043  0.000570 -0.000512 -0.000576  0.000522  0.000150 -0.000622 -0.000027
     0.000145  0.000609  0.000076  0.000257  0.000210  0.000018  0.000228  0.000303
     0.000033  0.000169  0.000407 -0.000041 -0.000023 -0.000081  0.000087 -0.000236
    -0.000117  0.000000 -0.000166 -0.000182 -0.000094 -0.000138  0.000283  0.000073
    -0.000308  0.000240 -0.000003 -0.000502 -0.000735  0.000031  0.005222 -0.000443
     0.000422
     NEW TRUST RADIUS =  0.02500
*REMARK   3 HET = Not identified; C 17 H 22 N O 3    =    43 atoms res:    1
 PM7 CHARGE=+1 EF NOXYZ PRNT=2 PDBOUT COMPFG GRAPHF
 (1S,12S,14R)-9-methoxy-4-methyl-11-oxa-4-azoniatetracyclo[8.6.1.01,12.06,17]heptadeca-6(17),7,9,15-tetraen-14-ol

  O(HETATM    1  O1  HET A   1)  -0.01084196 +1   -0.0012581 +1    0.0013639 +1
  O(HETATM    2  O2  HET A   1)   2.87313849 +1   -0.4147585 +1   -0.0825860 +1     1     0     0
  O(HETATM    3  O3  HET A   1)   2.80591167 +1  109.8229209 +1   -0.1056012 +1     1     2     0
  N(HETATM    4  N   HET A   1)   5.14225864 +1  109.0784430 +1 -116.8704079 +1     1     2     3
  C(HETATM    5  C1  HET A   1)   2.37544516 +1   89.5869249 +1 -132.2453305 +1     1     2     3
  C(HETATM    6  C2  HET A   1)   1.39901816 +1   83.2809806 +1 -171.7631190 +1     1     2     3
  C(HETATM    7  C3  HET A   1)   1.51586048 +1   68.2540070 +1  119.6844021 +1     5     1     2
  C(HETATM    8  C4  HET A   1)   1.56110377 +1  133.4956231 +1 -134.0835910 +1     5     1     2
  C(HETATM    9  C5  HET A   1)   1.51977910 +1  112.8924041 +1  -27.5631754 +1     6     1     2
  C(HETATM   10  C6  HET A   1)   1.50995040 +1  110.5137594 +1   19.7783640 +1     5     1     2
  C(HETATM   11  C7  HET A   1)   1.34605237 +1  116.2606341 +1  -62.5077903 +1     1     2     3
  C(HETATM   12  C8  HET A   1)   1.56227057 +1   73.8268679 +1  -66.3702844 +1     4     1     2
  C(HETATM   13  C9  HET A   1)   1.40973593 +1  132.2031604 +1 -177.8367718 +1     7     5     1
  C(HETATM   14  C10 HET A   1)   1.40720093 +1   82.7156046 +1  165.7180367 +1     2     1     3
  C(HETATM   15  C11 HET A   1)   1.56205386 +1   71.9649456 +1   83.1194563 +1     4     1     2
  C(HETATM   16  C12 HET A   1)   1.33817905 +1  123.4327931 +1  -39.5671691 +1    10     5     1
  C(HETATM   17  C13 HET A   1)   1.34614243 +1   60.4697071 +1 -109.3548467 +1     3     1     2
  C(HETATM   18  C14 HET A   1)   1.39618198 +1  117.7500051 +1  177.2142306 +1    13     7     5
  C(HETATM   19  C15 HET A   1)   1.40096629 +1  120.9382578 +1   -1.5960519 +1    18    13     7
  C(HETATM   20  C16 HET A   1)   1.49342805 +1   86.2238959 +1 -172.0167152 +1     4     1     2
  C(HETATM   21  C17 HET A   1)   1.38925644 +1  175.5701889 +1   62.6840262 +1     3     1     2
  H(HETATM   22 1H2  HET A   1)   1.11624187 +1  104.8020190 +1 -145.5464930 +1     6     1     2
  H(HETATM   23 1H4  HET A   1)   1.10960576 +1  109.3773917 +1   88.7775714 +1     8     5     1
  H(HETATM   24 2H4  HET A   1)   1.10878886 +1  108.4720593 +1  -27.1972340 +1     8     5     1
  H(HETATM   25 1H5  HET A   1)   1.11060585 +1  111.0277846 +1  -58.3374789 +1     9     6     1
  H(HETATM   26 2H5  HET A   1)   1.11153746 +1  107.3261437 +1 -175.8050218 +1     9     6     1
  H(HETATM   27  H6  HET A   1)   1.08396910 +1  118.5126218 +1  137.5021527 +1    10     5     1
  H(HETATM   28 1H8  HET A   1)   1.11543076 +1  109.1156086 +1 -136.6722828 +1    12     4     1
  H(HETATM   29 2H8  HET A   1)   1.13837321 +1  114.1624664 +1  112.3516272 +1    12     4     1
  H(HETATM   30  H10 HET A   1)   1.11689902 +1  109.7797951 +1  151.8487201 +1    14     2     1
  H(HETATM   31 1H11 HET A   1)   1.13826209 +1  116.0498175 +1 -112.0945696 +1    15     4     1
  H(HETATM   32 2H11 HET A   1)   1.11734061 +1  108.4453033 +1  139.2052392 +1    15     4     1
  H(HETATM   33  H12 HET A   1)   1.08669513 +1  118.8553814 +1  175.5728014 +1    16    10     5
  H(HETATM   34  H14 HET A   1)   1.08413313 +1  120.2073469 +1  179.3166143 +1    18    13     7
  H(HETATM   35  H15 HET A   1)   1.08427863 +1  118.4268316 +1 -179.3606757 +1    19    18    13
  H(HETATM   36 1H16 HET A   1)   1.10904979 +1  113.4297047 +1   -3.5561252 +1    20     4     1
  H(HETATM   37 2H16 HET A   1)   1.11026578 +1  110.6029716 +1 -124.9566273 +1    20     4     1
  H(HETATM   38 3H16 HET A   1)   1.10914957 +1  111.5800437 +1  119.5706539 +1    20     4     1
  H(HETATM   39 2H2  HET A   1)   0.99056529 +1  163.4819794 +1   40.9693091 +1     2     1     3
  H(HETATM   40 1H17 HET A   1)   1.10748353 +1  110.1933923 +1 -110.8680862 +1    21     3     1
  H(HETATM   41 2H17 HET A   1)   1.10664313 +1  110.2937480 +1  127.3504160 +1    21     3     1
  H(HETATM   42 3H17 HET A   1)   1.10403784 +1  108.4795496 +1    8.1769392 +1    21     3     1
  H(HETATM   43  H   HET A   1)   1.07652657 +1   45.1556872 +1    7.8376297 +1     4     1     2

 XPARAM 
  1  1   -0.0108  1  2   -0.0013  1  3    0.0014  2  1    2.8731  2  2   -0.0072
  2  3   -0.0014  3  1    2.8059  3  2    1.9168  3  3   -0.0018  4  1    5.1423
  4  2    1.9038  4  3    4.2434  5  1    2.3754  5  2    1.5636  5  3    3.9751
  6  1    1.3990  6  2    1.4535  6  3    3.2854  7  1    1.5159  7  2    1.1913
  7  3    2.0889  8  1    1.5611  8  2    2.3299  8  3    3.9430  9  1    1.5198
  9  2    1.9703  9  3    5.8021 10  1    1.5100 10  2    1.9288 10  3    0.3452
 11  1    1.3461 11  2    2.0291 11  3    5.1922 12  1    1.5623 12  2    1.2885
 12  3    5.1248 13  1    1.4097 13  2    2.3074 13  3    3.1793 14  1    1.4072
 14  2    1.4437 14  3    2.8923 15  1    1.5621 15  2    1.2560 15  3    1.4507
 16  1    1.3382 16  2    2.1543 16  3    5.5926 17  1    1.3461 17  2    1.0554
 17  3    4.3746 18  1    1.3962 18  2    2.0551 18  3    3.0930 19  1    1.4010
 19  2    2.1108 19  3    6.2553 20  1    1.4934 20  2    1.5049 20  3    3.2809
 21  1    1.3893 21  2    3.0643 21  3    1.0940 22  1    1.1162 22  2    1.8291
 22  3    3.7429 23  1    1.1096 23  2    1.9090 23  3    1.5495 24  1    1.1088
 24  2    1.8932 24  3    5.8085 25  1    1.1106 25  2    1.9378 25  3    5.2650
 26  1    1.1115 26  2    1.8732 26  3    3.2148 27  1    1.0840 27  2    2.0684
 27  3    2.3999 28  1    1.1154 28  2    1.9044 28  3    3.8978 29  1    1.1384
 29  2    1.9925 29  3    1.9609 30  1    1.1169 30  2    1.9160 30  3    2.6503
 31  1    1.1383 31  2    2.0255 31  3    4.3268 32  1    1.1173 32  2    1.8927
 32  3    2.4296 33  1    1.0867 33  2    2.0744 33  3    3.0643 34  1    1.0841
 34  2    2.0980 34  3    3.1297 35  1    1.0843 35  2    2.0669 35  3    3.1528
 36  1    1.1090 36  2    1.9797 36  3    6.2211 37  1    1.1103 37  2    1.9304
 37  3    4.1023 38  1    1.1091 38  2    1.9474 38  3    2.0869 39  1    0.9906
 39  2    2.8533 39  3    0.7150 40  1    1.1075 40  2    1.9232 40  3    4.3482
 41  1    1.1066 41  2    1.9250 41  3    2.2227 42  1    1.1040 42  2    1.8933
 42  3    0.1427 43  1    1.0765 43  2    0.7881 43  3    0.1368
 grad
      -0.00000   -0.00000   -0.00000   -4.49280    0.00000    0.00000    9.46920  -43.81204
       0.00000   11.98734   -2.29607   98.51959   34.21791  -61.76255 -225.26387  -29.69504
     -14.36647    1.54400    4.82232  278.53883   18.93885    7.17352  -23.51851    3.01600
       7.02052   15.70410   -0.48842    3.97305  -12.32935  -10.45415  -21.75590   -1.34546
       5.16293  -46.86854  -10.31623   24.08273   68.18460 -174.88500  -11.92574  -10.95936
      -9.23839   -3.35181  -43.15083  -44.38535   -7.48196    0.68902   -7.31588   -3.33339
     -30.78774  -52.92547   -0.46311    5.99509  120.17837    2.89926  -23.52846   40.63833
      -0.03744   -5.73924   -1.88254   -0.05427  -19.92833  -21.89380    0.30556   -3.17098
       0.43039    2.89429   -1.27502    3.20936    3.39958    1.76074   -2.29857    0.70306
       0.12171    1.71632   -2.50517   -1.14992   -2.69001   -5.42262   -1.02504    8.14339
       0.20358   -0.93573   11.73442   -1.47632   11.85066   11.11430    5.47050   -3.92276
       3.80497   -5.88037    7.96131   14.83140   -6.50615   -4.77692   13.52018    1.05486
      -5.14628   -4.38546   -0.70006   -4.28472   -2.08488    0.26686   -3.24234   -2.19550
      -0.07255    1.43679   -2.91155    0.63868    1.63108    4.57735   -0.91382    2.40336
       4.63529    0.75729    0.93803    5.34457    2.11211    3.87085   -1.57102   -0.62647
       3.80191   -1.58881    0.57801    3.97765   14.47187    0.07800  -93.02311   10.50623
       1.42935
 CYCLE:     5 TIME:   1.414 TIME LEFT:  2.00D  GRAD.:   471.749 HEAT:  201.1039

          HESSIAN HAS  0 NEGATIVE EIGENVALUE(S)
  MIN SEARCH, CORRECT HESSIAN, TRYING PURE NR STEP
 LAMBDA THAT MINIMIZES ALONG ALL MODES =        0.000000000
 PURE NR-STEP HAS LENGTH   0.53189
 LAMBDA THAT MINIMIZES ALONG ALL MODES =      -58.413228605
 P-RFO-STEP   HAS LENGTH   0.41421
 LAMBDA THAT MINIMIZES ALONG ALL MODES =    -5811.117301044
 QA/TRIM-STEP HAS LENGTH   0.02500

  HEAT OF FORMATION        196.34950528081390    
 PARAMETERS       -0.013  -0.001   0.001   2.871  -0.009  -0.002   2.802   1.918
  -0.002   5.139   1.904   4.243   2.373   1.561   3.981   1.403   1.455   3.286

   1.516   1.184   2.087   1.559   2.330   3.944   1.518   1.967   5.802   1.508

   1.928   0.344   1.348   2.029   5.191   1.568   1.292   5.122   1.406   2.311

   3.180   1.408   1.445   2.891   1.569   1.260   1.453   1.338   2.154   5.593

   1.346   1.057   4.374   1.396   2.055   3.093   1.401   2.112   6.255   1.493

   1.505   3.281   1.392   3.067   1.094   1.116   1.829   3.742   1.110   1.908

   1.548   1.108   1.893   5.809   1.110   1.937   5.265   1.111   1.874   3.216

   1.084   2.067   2.400   1.116   1.902   3.898   1.137   1.991   1.960   1.117

   1.915   2.651   1.137   2.023   4.328   1.118   1.891   2.429   1.087   2.075

   3.064   1.085   2.098   3.130   1.085   2.067   3.153   1.109   1.980   6.221

   1.110   1.930   4.102   1.109   1.947   2.087   0.990   2.852   0.715   1.107

   1.923   4.348   1.106   1.925   2.222   1.103   1.891   0.143   1.091   0.786

   0.137
 GRADIENT         -0.000  -0.000  -0.000  -3.767   0.000   0.000  12.564  -4.467
   0.000  34.942 -25.048 -17.508 -51.727   3.989   1.536 -26.297  -9.044  -3.379

  -9.796 -53.461   4.964   4.526  -8.220  -2.919   5.031  16.003  -2.222   0.711

 -26.270 -16.667  -3.423  -2.194  -6.749 -37.956 -11.941  14.543  -7.746   8.979

  -2.395  -8.780  -7.083 -10.034 -46.534  -5.993 -16.734   3.510 -14.219  -1.383

   3.148 -20.242  -2.011  -2.812 -11.891   0.364  -0.192 -13.190  -0.182  -4.764

  -0.545   0.844 -17.150 -20.194   0.283  -2.359   0.095   3.706  -2.523   4.437

   4.731   0.351  -1.078  -0.655  -0.119   1.530  -2.575  -1.153  -2.845  -5.239

  -1.179   7.902   0.383  -0.381  11.297  -2.421  10.478  11.881   4.510  -3.698

   3.479  -5.290   9.158  14.186  -7.320  -1.829  12.297   3.539  -5.325  -3.816

  -0.484  -4.146  -1.098   0.234  -5.294  -0.066  -0.221   1.251  -2.728   0.743

   1.313   4.443  -0.855   2.048   4.427   0.710   0.822   5.308   2.171   3.520

  -1.396  -0.810   3.468  -1.435   0.772   3.593  14.352   0.075 -84.158  11.717

  -1.248
       HoF         ACTUAL,  PREDICTED ENERGY CHANGE, RATIO
   196.3495053    -4.7544303          -5.4782944    0.8678669
     STEPSIZE USED IS  0.02500
 CALCULATED STEP
    -0.002252  0.000630 -0.000360 -0.001683 -0.001497 -0.000265 -0.003751  0.001206
    -0.000234 -0.003074 -0.000147 -0.000241 -0.001962 -0.003020  0.005559  0.003743
     0.001702  0.000774  0.000127 -0.007685 -0.001790 -0.002220 -0.000298  0.000939
    -0.001944 -0.003023  0.000296 -0.002098 -0.000848 -0.000763  0.001829 -0.000216
    -0.000746  0.005666  0.003739 -0.003111 -0.003301  0.003996  0.000430  0.000876
     0.000988 -0.001142  0.006952  0.004449  0.002245 -0.000292 -0.000805  0.000175
    -0.000516  0.001526 -0.000126 -0.000202 -0.000583 -0.000400 -0.000159  0.001603
    -0.000312 -0.000053 -0.000101 -0.000355  0.003147  0.003021 -0.000275  0.000232
    -0.000077 -0.000650  0.000222 -0.000849 -0.000963 -0.000338  0.000071  0.000066
    -0.000255 -0.000336  0.000357 -0.000072  0.000370  0.000812 -0.000044 -0.001395
    -0.000117  0.000072 -0.001972  0.000097 -0.001839 -0.001950 -0.000812  0.000312
    -0.000614  0.001004 -0.001540 -0.002364  0.001087  0.000438 -0.002171 -0.000325
     0.000485  0.000787  0.000042  0.000466  0.000230 -0.000118  0.000661 -0.000118
    -0.000060 -0.000434  0.000394 -0.000198 -0.000466 -0.000799  0.000079 -0.000578
    -0.000795 -0.000192 -0.000179 -0.000883 -0.000419 -0.000816  0.000197  0.000047
    -0.000798  0.000208 -0.000186 -0.000842 -0.002381 -0.000085  0.014276 -0.001700
     0.000026
     NEW TRUST RADIUS =  0.03536
*REMARK   3 HET = Not identified; C 17 H 22 N O 3    =    43 atoms res:    1
 PM7 CHARGE=+1 EF NOXYZ PRNT=2 PDBOUT COMPFG GRAPHF
 (1S,12S,14R)-9-methoxy-4-methyl-11-oxa-4-azoniatetracyclo[8.6.1.01,12.06,17]heptadeca-6(17),7,9,15-tetraen-14-ol

  O(HETATM    1  O1  HET A   1)  -0.01309359 +1   -0.0006277 +1    0.0010041 +1
  O(HETATM    2  O2  HET A   1)   2.87145513 +1   -0.5005191 +1   -0.0977910 +1     1     0     0
  O(HETATM    3  O3  HET A   1)   2.80216076 +1  109.8920342 +1   -0.1190033 +1     1     2     0
  N(HETATM    4  N   HET A   1)   5.13918511 +1  109.0700125 +1 -116.8842108 +1     1     2     3
  C(HETATM    5  C1  HET A   1)   2.37348299 +1   89.4138836 +1 -131.9268151 +1     1     2     3
  C(HETATM    6  C2  HET A   1)   1.40276071 +1   83.3785050 +1 -171.7187830 +1     1     2     3
  C(HETATM    7  C3  HET A   1)   1.51598715 +1   67.8137043 +1  119.5818415 +1     5     1     2
  C(HETATM    8  C4  HET A   1)   1.55888382 +1  133.4785287 +1 -134.0297665 +1     5     1     2
  C(HETATM    9  C5  HET A   1)   1.51783534 +1  112.7192241 +1  -27.5462015 +1     6     1     2
  C(HETATM   10  C6  HET A   1)   1.50785240 +1  110.4651948 +1   19.7346521 +1     5     1     2
  C(HETATM   11  C7  HET A   1)   1.34788127 +1  116.2482404 +1  -62.5505303 +1     1     2     3
  C(HETATM   12  C8  HET A   1)   1.56793632 +1   74.0410801 +1  -66.5485482 +1     4     1     2
  C(HETATM   13  C9  HET A   1)   1.40643478 +1  132.4320859 +1 -177.8121387 +1     7     5     1
  C(HETATM   14  C10 HET A   1)   1.40807694 +1   82.7722061 +1  165.6526000 +1     2     1     3
  C(HETATM   15  C11 HET A   1)   1.56900540 +1   72.2198562 +1   83.2480840 +1     4     1     2
  C(HETATM   16  C12 HET A   1)   1.33788726 +1  123.3866767 +1  -39.5571441 +1    10     5     1
  C(HETATM   17  C13 HET A   1)   1.34562675 +1   60.5571457 +1 -109.3620413 +1     3     1     2
  C(HETATM   18  C14 HET A   1)   1.39598010 +1  117.7165830 +1  177.1913273 +1    13     7     5
[...]
     83         28  H    ANGLE         109.291930     -0.233943  KCAL/RADIAN  
     84         28  H    DIHEDRAL      225.738484      1.108383  KCAL/RADIAN  
     85         29  H    BOND            1.115069      2.594868  KCAL/ANGSTROM
     86         29  H    ANGLE         110.538661      1.569882  KCAL/RADIAN  
     87         29  H    DIHEDRAL      109.279536      1.466459  KCAL/RADIAN  
     88         30  H    BOND            1.123188      2.550890  KCAL/ANGSTROM
     89         30  H    ANGLE         108.023714     -0.642439  KCAL/RADIAN  
     90         30  H    DIHEDRAL      148.669427      1.179189  KCAL/RADIAN  
     91         31  H    BOND            1.119821      4.433195  KCAL/ANGSTROM
     92         31  H    ANGLE         110.007960     -1.181858  KCAL/RADIAN  
     93         31  H    DIHEDRAL      250.260918     -1.939962  KCAL/RADIAN  
     94         32  H    BOND            1.119490      2.281402  KCAL/ANGSTROM
     95         32  H    ANGLE         109.728908      0.324046  KCAL/RADIAN  
     96         32  H    DIHEDRAL      133.554956     -1.214417  KCAL/RADIAN  
     97         33  H    BOND            1.097932      2.959335  KCAL/ANGSTROM
     98         33  H    ANGLE         119.365611     -2.677244  KCAL/RADIAN  
     99         33  H    DIHEDRAL      180.769494      0.587673  KCAL/RADIAN  
    100         34  H    BOND            1.092189      2.425553  KCAL/ANGSTROM
    101         34  H    ANGLE         120.312369     -1.550649  KCAL/RADIAN  
    102         34  H    DIHEDRAL      182.651370      0.450381  KCAL/RADIAN  
    103         35  H    BOND            1.095413      2.660485  KCAL/ANGSTROM
    104         35  H    ANGLE         117.389991     -1.702700  KCAL/RADIAN  
    105         35  H    DIHEDRAL      183.940950      0.994390  KCAL/RADIAN  
    106         36  H    BOND            1.115173      5.016716  KCAL/ANGSTROM
    107         36  H    ANGLE         108.093268     -4.916958  KCAL/RADIAN  
    108         36  H    DIHEDRAL      356.145568      0.255579  KCAL/RADIAN  
    109         37  H    BOND            1.109176      3.225657  KCAL/ANGSTROM
    110         37  H    ANGLE         111.362452     -1.400824  KCAL/RADIAN  
    111         37  H    DIHEDRAL      236.995886      0.337393  KCAL/RADIAN  
    112         38  H    BOND            1.105120      1.889350  KCAL/ANGSTROM
    113         38  H    ANGLE         112.087641     -0.992666  KCAL/RADIAN  
    114         38  H    DIHEDRAL      116.071319     -0.225336  KCAL/RADIAN  
    115         39  H    BOND            0.985310      1.774226  KCAL/ANGSTROM
    116         39  H    ANGLE         152.170576      2.157847  KCAL/RADIAN  
    117         39  H    DIHEDRAL       41.464281      1.434768  KCAL/RADIAN  
    118         40  H    BOND            1.102893      4.029578  KCAL/ANGSTROM
    119         40  H    ANGLE         108.852649     -3.280751  KCAL/RADIAN  
    120         40  H    DIHEDRAL      251.828688     -0.763035  KCAL/RADIAN  
    121         41  H    BOND            1.099017      2.698335  KCAL/ANGSTROM
    122         41  H    ANGLE         109.775893     -3.675952  KCAL/RADIAN  
    123         41  H    DIHEDRAL      128.824430      1.265873  KCAL/RADIAN  
    124         42  H    BOND            1.097417      0.317014  KCAL/ANGSTROM
    125         42  H    ANGLE         103.907771      4.250292  KCAL/RADIAN  
    126         42  H    DIHEDRAL       10.146214      0.261669  KCAL/RADIAN  
    127         43  H    BOND            1.063646     -0.824571  KCAL/ANGSTROM
    128         43  H    ANGLE         -39.496268      2.952356  KCAL/RADIAN  
    129         43  H    DIHEDRAL        7.497359      0.569460  KCAL/RADIAN  




  ATOM               CHEMICAL                 BOND LENGTH      BOND ANGLE     TWIST ANGLE 
 NUMBER               SYMBOL                  (ANGSTROMS)      (DEGREES)       (DEGREES) 
   (I)                                           NA:I           NB:NA:I       NC:NB:NA:I       NA    NB    NC 
     1       O(HETATM    1  O1  HET A   1)    0.06012585  *    0.1257444  *    0.0237476  *
     2       O(HETATM    2  O2  HET A   1)    2.93987521  *  -10.7204819  *  -20.9815973  *     1     0     0
     3       O(HETATM    3  O3  HET A   1)    2.76437382  *   96.2882826  *   -7.6017580  *     1     2     0
     4       N(HETATM    4  N   HET A   1)    4.74784794  *  112.7850831  * -111.2843475  *     1     2     3
     5       C(HETATM    5  C1  HET A   1)    2.50438081  *   81.4833553  * -125.2472766  *     1     2     3
     6       C(HETATM    6  C2  HET A   1)    1.48736742  *   78.8792237  * -162.3375769  *     1     2     3
     7       C(HETATM    7  C3  HET A   1)    1.52279871  *   65.3491869  *  111.2075594  *     5     1     2
     8       C(HETATM    8  C4  HET A   1)    1.56089002  *  130.1141462  * -136.7151231  *     5     1     2
     9       C(HETATM    9  C5  HET A   1)    1.53217669  *  107.1144027  *  -35.0924597  *     6     1     2
    10       C(HETATM   10  C6  HET A   1)    1.50374164  *  117.8767605  *   14.5368011  *     5     1     2
    11       C(HETATM   11  C7  HET A   1)    1.36821114  *   97.7711729  *  -58.3235840  *     1     2     3
    12       C(HETATM   12  C8  HET A   1)    1.53786181  *   84.5708771  *  -48.9941798  *     4     1     2
    13       C(HETATM   13  C9  HET A   1)    1.40893719  *  130.2820352  *  172.3346768  *     7     5     1
    14       C(HETATM   14  C10 HET A   1)    1.42635508  *   85.9939017  *  165.5571932  *     2     1     3
    15       C(HETATM   15  C11 HET A   1)    1.53203934  *   83.3384791  *   61.8792274  *     4     1     2
    16       C(HETATM   16  C12 HET A   1)    1.34310372  *  120.9382074  *  -39.7614717  *    10     5     1
    17       C(HETATM   17  C13 HET A   1)    1.35651996  *   62.4595833  *  -99.6359683  *     3     1     2
    18       C(HETATM   18  C14 HET A   1)    1.39764439  *  117.8795207  *  168.9892943  *    13     7     5
    19       C(HETATM   19  C15 HET A   1)    1.41462142  *  120.4999853  *    2.2469778  *    18    13     7
    20       C(HETATM   20  C16 HET A   1)    1.51805148  *  146.6286304  * -172.0633341  *     4     1     2
    21       C(HETATM   21  C17 HET A   1)    1.43202226  *  179.9978970  *   73.7506504  *     3     1     2
    22       H(HETATM   22 1H2  HET A   1)    1.11509044  *  101.0872019  * -151.4282980  *     6     1     2
    23       H(HETATM   23 1H4  HET A   1)    1.11973033  *  107.1947149  *  110.6809743  *     8     5     1
    24       H(HETATM   24 2H4  HET A   1)    1.11744328  *  108.5697521  *   -2.2958811  *     8     5     1
    25       H(HETATM   25 1H5  HET A   1)    1.12395726  *  108.1152925  *  -39.7440413  *     9     6     1
    26       H(HETATM   26 2H5  HET A   1)    1.11390991  *  108.4219179  * -155.7972449  *     9     6     1
    27       H(HETATM   27  H6  HET A   1)    1.08579428  *  116.3415554  *  139.3512980  *    10     5     1
    28       H(HETATM   28 1H8  HET A   1)    1.12197021  *  109.2919298  * -134.2615164  *    12     4     1
    29       H(HETATM   29 2H8  HET A   1)    1.11506882  *  110.5386605  *  109.2795360  *    12     4     1
    30       H(HETATM   30  H10 HET A   1)    1.12318806  *  108.0237137  *  148.6694273  *    14     2     1
    31       H(HETATM   31 1H11 HET A   1)    1.11982060  *  110.0079602  * -109.7390817  *    15     4     1
    32       H(HETATM   32 2H11 HET A   1)    1.11948980  *  109.7289080  *  133.5549560  *    15     4     1
    33       H(HETATM   33  H12 HET A   1)    1.09793177  *  119.3656113  * -179.2305056  *    16    10     5
    34       H(HETATM   34  H14 HET A   1)    1.09218862  *  120.3123693  * -177.3486304  *    18    13     7
    35       H(HETATM   35  H15 HET A   1)    1.09541264  *  117.3899910  * -176.0590505  *    19    18    13
    36       H(HETATM   36 1H16 HET A   1)    1.11517300  *  108.0932682  *   -3.8544321  *    20     4     1
    37       H(HETATM   37 2H16 HET A   1)    1.10917636  *  111.3624517  * -123.0041143  *    20     4     1
    38       H(HETATM   38 3H16 HET A   1)    1.10511995  *  112.0876412  *  116.0713190  *    20     4     1
    39       H(HETATM   39 2H2  HET A   1)    0.98531048  *  152.1705756  *   41.4642815  *     2     1     3
    40       H(HETATM   40 1H17 HET A   1)    1.10289309  *  108.8526493  * -108.1713123  *    21     3     1
    41       H(HETATM   41 2H17 HET A   1)    1.09901669  *  109.7758930  *  128.8244299  *    21     3     1
    42       H(HETATM   42 3H17 HET A   1)    1.09741686  *  103.9077708  *   10.1462139  *    21     3     1
    43       H(HETATM   43  H   HET A   1)    1.06364609  *   39.4962680  * -172.5026405  *     4     1     2

                             CARTESIAN COORDINATES

   1    O        0.060125847     0.125744411     0.023747564
   2    O        3.000001061     0.125744411     0.023747564
   3    O       -0.242658884     2.873486036     0.023747564
   4    N       -1.778599657    -1.463217309     4.102515665
   5    C        0.431016427    -1.303612288     2.046444493
   6    C        0.347005981    -1.264897437     0.466553270
   7    C       -0.158190930     0.069837591     2.338653368
   8    C       -0.279425993    -2.620270569     2.491484030
   9    C        1.609627020    -1.721683237    -0.271484835
  10    C        1.807642729    -1.322460200     2.651245036
  11    C       -0.124879673     0.837622863     1.177438926
  12    C       -0.796118831    -2.632262458     3.920626130
  13    C       -0.658414099     0.609631740     3.540112093
  14    C        2.900352117    -1.252158706     0.378630488
  15    C       -1.048517823    -0.254038942     4.695822262
  16    C        2.903142518    -1.331869542     1.874251289
  17    C       -0.374082364     2.227987532     1.209583118
  18    C       -0.925472000     1.980966840     3.579226946
  19    C       -0.741236040     2.781444854     2.427512648
  20    C       -3.032060372    -1.878669452     4.851325428
  21    C       -0.399495147     4.296893962     0.023697103
  22    H       -0.554605119    -1.800796270     0.087955116
  23    H        0.466509923    -3.449253440     2.390672198
  24    H       -1.080998235    -2.860001732     1.750747644
  25    H        1.554992718    -1.339444029    -1.327035975
  26    H        1.605244853    -2.834482381    -0.321024272
  27    H        1.857548024    -1.312795746     3.735848775
  28    H       -1.329606993    -3.599117493     4.119117641
  29    H        0.026378206    -2.572429969     4.671157391
  30    H        3.786170826    -1.788120009    -0.056825717
  31    H       -0.179387876    -0.596384061     5.313407179
  32    H       -1.732108241     0.296585823     5.390641599
  33    H        3.895564445    -1.358454600     2.343128814
  34    H       -1.273143707     2.448732324     4.502912947
  35    H       -0.902019319     3.859906662     2.532382695
  36    H       -3.908324338    -1.702270301     4.184500405
  37    H       -3.166744923    -1.281515401     5.776279107
  38    H       -3.010764772    -2.945941263     5.137275588
  39    H        3.871351856     0.470441396     0.328326821
  40    H        0.417271514     4.745449841     0.613665753
  41    H       -1.389433716     4.561926890     0.420707001
  42    H       -0.315805953     4.571448712    -1.035519383
  43    H       -2.079116195    -1.176486997     3.123322859


           Empirical Formula: C17 H22 N O3  =    43 atoms



      MOLECULAR POINT GROUP   :   C1  


                  EIGENVALUES  
 -41.86418 -34.59538 -33.45606 -32.84262 -32.38518 -31.87892 -30.48234 -30.14621
 -29.13965 -28.72537 -28.48159 -27.69830 -27.07601 -26.42759 -25.63265 -24.33044
 -24.17497 -23.84987 -22.41890 -21.87912 -21.33468 -20.90609 -20.53171 -20.25092
 -20.10665 -19.44240 -19.42307 -18.94825 -18.86776 -18.45245 -18.32520 -18.14508
 -17.90915 -17.65748 -17.51926 -17.46664 -17.30819 -16.95050 -16.73754 -16.60441
 -16.47129 -16.28872 -16.12077 -15.85388 -15.57170 -15.34256 -15.04270 -14.77413
 -14.67406 -14.35762 -14.23231 -13.94731 -13.02218 -12.82857 -12.30491 -11.27911
  -3.63193  -3.00456  -2.66563  -2.08862  -1.42320  -1.22537  -1.13430  -0.77069
  -0.64170  -0.61997  -0.23924   0.10623   0.14964   0.29545   0.52362   0.66638
   0.70076   0.75157   0.90870   0.93995   0.99990   1.11525   1.24488   1.30133
   1.36665   1.45810   1.48590   1.58623   1.61313   1.68923   1.75082   1.88386
   1.97818   2.08462   2.27632   2.35707   2.53055   2.76436   2.79080   2.91932
   2.99829   3.04220   3.09719   3.18335   3.19242   3.29030   3.38609   3.59378
   3.80177   3.88766


              NET ATOMIC CHARGES AND DIPOLE CONTRIBUTIONS

  ATOM NO.                 TYPE                        CHARGE      No. of ELECS.   s-Pop       p-Pop       
    1          O(HETATM    1  O1  HET A   1)          -0.230227        6.2302     1.89695     4.33328
    2          O(HETATM    2  O2  HET A   1)          -0.510312        6.5103     1.86268     4.64763
    3          O(HETATM    3  O3  HET A   1)          -0.242172        6.2422     1.87207     4.37010
    4          N(HETATM    4  N   HET A   1)          -0.117651        5.1177     1.53932     3.57833
    5          C(HETATM    5  C1  HET A   1)           0.008667        3.9913     1.06908     2.92226
    6          C(HETATM    6  C2  HET A   1)           0.067591        3.9324     1.12049     2.81192
    7          C(HETATM    7  C3  HET A   1)          -0.168176        4.1682     1.07140     3.09678
    8          C(HETATM    8  C4  HET A   1)          -0.333399        4.3334     1.07524     3.25816
    9          C(HETATM    9  C5  HET A   1)          -0.320249        4.3202     1.06992     3.25032
   10          C(HETATM   10  C6  HET A   1)          -0.168460        4.1685     1.09309     3.07537
   11          C(HETATM   11  C7  HET A   1)           0.152831        3.8472     1.08572     2.76145
   12          C(HETATM   12  C8  HET A   1)          -0.152456        4.1525     1.09636     3.05610
   13          C(HETATM   13  C9  HET A   1)          -0.139935        4.1399     1.05220     3.08774
   14          C(HETATM   14  C10 HET A   1)           0.144987        3.8550     1.07789     2.77713
   15          C(HETATM   15  C11 HET A   1)          -0.131174        4.1312     1.09057     3.04061
   16          C(HETATM   16  C12 HET A   1)          -0.182537        4.1825     1.10690     3.07564
   17          C(HETATM   17  C13 HET A   1)           0.203598        3.7964     1.08104     2.71537
   18          C(HETATM   18  C14 HET A   1)          -0.106865        4.1069     1.08701     3.01985
   19          C(HETATM   19  C15 HET A   1)          -0.249775        4.2498     1.07884     3.17093
   20          C(HETATM   20  C16 HET A   1)          -0.325911        4.3259     1.08788     3.23803
   21          C(HETATM   21  C17 HET A   1)          -0.210564        4.2106     1.09597     3.11459
   22          H(HETATM   22 1H2  HET A   1)           0.137723        0.8623     0.86228
   23          H(HETATM   23 1H4  HET A   1)           0.193918        0.8061     0.80608
   24          H(HETATM   24 2H4  HET A   1)           0.165602        0.8344     0.83440
   25          H(HETATM   25 1H5  HET A   1)           0.201433        0.7986     0.79857
   26          H(HETATM   26 2H5  HET A   1)           0.158133        0.8419     0.84187
   27          H(HETATM   27  H6  HET A   1)           0.147225        0.8528     0.85278
   28          H(HETATM   28 1H8  HET A   1)           0.173225        0.8268     0.82678
   29          H(HETATM   29 2H8  HET A   1)           0.180173        0.8198     0.81983
   30          H(HETATM   30  H10 HET A   1)           0.136817        0.8632     0.86318
   31          H(HETATM   31 1H11 HET A   1)           0.180885        0.8191     0.81911
   32          H(HETATM   32 2H11 HET A   1)           0.178324        0.8217     0.82168
   33          H(HETATM   33  H12 HET A   1)           0.161480        0.8385     0.83852
   34          H(HETATM   34  H14 HET A   1)           0.164317        0.8357     0.83568
   35          H(HETATM   35  H15 HET A   1)           0.188221        0.8118     0.81178
   36          H(HETATM   36 1H16 HET A   1)           0.185945        0.8141     0.81405
   37          H(HETATM   37 2H16 HET A   1)           0.188587        0.8114     0.81141
   38          H(HETATM   38 3H16 HET A   1)           0.185673        0.8143     0.81433
   39          H(HETATM   39 2H2  HET A   1)           0.309693        0.6903     0.69031
   40          H(HETATM   40 1H17 HET A   1)           0.145947        0.8541     0.85405
   41          H(HETATM   41 2H17 HET A   1)           0.137811        0.8622     0.86219
   42          H(HETATM   42 3H17 HET A   1)           0.173066        0.8269     0.82693
   43          H(HETATM   43  H   HET A   1)           0.317988        0.6820     0.68201
 DIPOLE           X         Y         Z       TOTAL
 POINT-CHG.    -5.857    -5.941     8.707    12.059
 HYBRID        -0.043     0.118    -0.061     0.140
 SUM           -5.901    -5.824     8.645    11.978


          ATOMIC ORBITAL ELECTRON POPULATIONS

                   Atom                  s        px        py        pz   
   O(HETATM    1  O1  HET A   1)   1.89695   1.83279   1.25535   1.24514
   O(HETATM    2  O2  HET A   1)   1.86268   1.49759   1.31445   1.83559
   O(HETATM    3  O3  HET A   1)   1.87207   1.83482   1.26039   1.27489
   N(HETATM    4  N   HET A   1)   1.53932   1.15677   1.18301   1.23855
   C(HETATM    5  C1  HET A   1)   1.06908   0.99707   0.92196   1.00322
   C(HETATM    6  C2  HET A   1)   1.12049   1.04743   0.83000   0.93449
   C(HETATM    7  C3  HET A   1)   1.07140   1.09652   1.00207   0.99819
   C(HETATM    8  C4  HET A   1)   1.07524   1.15505   1.10425   0.99886
   C(HETATM    9  C5  HET A   1)   1.06992   0.99184   1.12627   1.13222
   C(HETATM   10  C6  HET A   1)   1.09309   0.97108   1.03235   1.07193
   C(HETATM   11  C7  HET A   1)   1.08572   0.95014   0.93890   0.87241
   C(HETATM   12  C8  HET A   1)   1.09636   1.02345   0.94749   1.08516
   C(HETATM   13  C9  HET A   1)   1.05220   1.12549   0.99523   0.96702
   C(HETATM   14  C10 HET A   1)   1.07789   1.02201   0.82345   0.93166
   C(HETATM   15  C11 HET A   1)   1.09057   1.08965   0.89760   1.05336
   C(HETATM   16  C12 HET A   1)   1.10690   1.06689   0.97625   1.03250
   C(HETATM   17  C13 HET A   1)   1.08104   0.92686   0.90862   0.87988
   C(HETATM   18  C14 HET A   1)   1.08701   0.99213   0.97258   1.05515
   C(HETATM   19  C15 HET A   1)   1.07884   1.09298   1.10245   0.97550
   C(HETATM   20  C16 HET A   1)   1.08788   0.92269   1.18672   1.12862
   C(HETATM   21  C17 HET A   1)   1.09597   1.14504   0.79576   1.17379
   H(HETATM   22 1H2  HET A   1)   0.86228
   H(HETATM   23 1H4  HET A   1)   0.80608
   H(HETATM   24 2H4  HET A   1)   0.83440
   H(HETATM   25 1H5  HET A   1)   0.79857
   H(HETATM   26 2H5  HET A   1)   0.84187
   H(HETATM   27  H6  HET A   1)   0.85278
   H(HETATM   28 1H8  HET A   1)   0.82678
   H(HETATM   29 2H8  HET A   1)   0.81983
   H(HETATM   30  H10 HET A   1)   0.86318
   H(HETATM   31 1H11 HET A   1)   0.81911
   H(HETATM   32 2H11 HET A   1)   0.82168
   H(HETATM   33  H12 HET A   1)   0.83852
   H(HETATM   34  H14 HET A   1)   0.83568
   H(HETATM   35  H15 HET A   1)   0.81178
   H(HETATM   36 1H16 HET A   1)   0.81405
   H(HETATM   37 2H16 HET A   1)   0.81141
   H(HETATM   38 3H16 HET A   1)   0.81433
   H(HETATM   39 2H2  HET A   1)   0.69031
   H(HETATM   40 1H17 HET A   1)   0.85405
   H(HETATM   41 2H17 HET A   1)   0.86219
   H(HETATM   42 3H17 HET A   1)   0.82693
   H(HETATM   43  H   HET A   1)   0.68201

           DATA FOR GRAPH WRITTEN TO DISK

 **********************
 *                    *
 * JOB ENDED NORMALLY *
 *                    *
 **********************



 TOTAL JOB TIME:             3.02 SECONDS

 == MOPAC DONE ==
