 *******************************************************************************
 **                                                                           **
 **                              MOPAC v22.0.6                                **
 **                                                                           **
 *******************************************************************************
 **          Digital Object Identifier (DOI): 10.5281/zenodo.6511958          **
 **    Visit the DOI location for information on how to cite this program.    **
 *******************************************************************************

                              PM7 CALCULATION RESULTS

 *******************************************************************************
 *  CALCULATION DONE:                                Sun Oct 12 20:11:55 2025  *
 *  PM7        - The PM7 Hamiltonian to be used
 *  PDBOUT     - PRINT GEOMETRY IN PDB FORMAT
 *  RESIDUES   - DETERMINE THE SEQUENCE OF RESIDUES
 *
 *
 *
 *                 CHARGE ON SYSTEM = -1
 *
 *
 *
 *  EF         - USE EF ROUTINE FOR MINIMUM SEARCH
 *  T=         - A TIME OF 172800.0 SECONDS REQUESTED
 *  DUMP=N     - RESTART FILE WRITTEN EVERY 7200.0 SECONDS REQUESTED
 *  NOXYZ      - CARTESIAN COORDINATES NOT TO BE PRINTED
 *  PRNT       - EXTRA PRINTING IN EF ROUTINE
 *  GRAPH      - GENERATE FILE FOR GRAPHICS
 *  COMPFG     - PRINT HEAT OF FORMATION CALC'D IN COMPFG
 *******************************************************************************
PM7 CHARGE=-1 EF NOXYZ PRNT=2 PDBOUT COMPFG GRAPHF
 1H-indole-2,3-dione

  ATOM    CHEMICAL      BOND LENGTH      BOND ANGLE     TWIST ANGLE 
 NUMBER    SYMBOL       (ANGSTROMS)      (DEGREES)       (DEGREES) 
   (I)                     NA:I           NB:NA:I       NC:NB:NA:I       NA    NB    NC 
     1       O          0.00000000  *    0.0000000  *    0.0000000  *     0     0     0
     2       O          2.87294800  *    0.0000000  *    0.0000000  *     1     0     0
     3       N          2.36892300  *   82.2546170  *    0.0000000  *     2     1     0
     4       C          2.29921000  *   99.0119430  *   -0.0182590  *     3     2     1
     5       C          1.39146500  *   34.5287160  * -179.9818950  *     4     3     2
     6       C          1.20685100  *   55.8842970  *    0.0130680  *     1     2     3
     7       C          1.21138000  *   56.4308710  *    0.0283050  *     2     1     3
     8       C          1.37748400  *  157.2267860  * -179.9328360  *     4     3     2
     9       C          1.37915300  *  121.2547300  *  179.9676810  *     5     4     3
    10       C          1.39691100  *  116.7519970  *   -0.0148920  *     8     4     3
    11       C          1.39921000  *  117.2785870  *    0.0004350  *     9     5     4
    12       H          1.08696500  *  119.6024240  * -179.9955210  *    11     9     5
    13       H          1.08325500  *  122.0863820  *  179.9591760  *     8     4     3
    14       H          1.08392000  *  121.8942940  * -179.9892130  *     9     5     4
    15       H          1.08696900  *  119.6813830  *  179.9852590  *    10     8     4


 General Reference for PM7:
 "Optimization of Parameters for Semiempirical Methods VI: More Modifications to the 
 NDDO Approximations and Re-optimization of Parameters", J. J. P. Stewart, J. Mol. Mod., 1:32, 19 (2013)
 https://link.springer.com/article/10.1007/s00894-012-1667-x

           Empirical Formula: C8 H4 N O2  =    15 atoms



      MOLECULAR POINT GROUP   :   Cs  


      RHF CALCULATION, NO. OF DOUBLY OCCUPIED LEVELS = 27


          Geometry optimization using EF

  HEAT OF FORMATION       -60.686938699938764    
 PARAMETERS        0.000   0.000   0.000   2.873   0.000   0.000   2.369   1.436
   0.000   2.299   1.728   6.283   1.391   0.603   3.142   1.207   0.975   0.000

   1.211   0.985   0.000   1.377   2.744   3.143   1.379   2.116   3.141   1.397

   2.038   6.283   1.399   2.047   0.000   1.087   2.087   3.142   1.083   2.131

   3.141   1.084   2.127   3.142   1.087   2.089   3.141
 GRADIENT         -0.000  -0.000  -0.000 -44.625   0.000   0.000   0.775 -70.995
   0.000   3.778 -12.835   0.074 -40.528  13.539  -0.022  53.510 -17.236   0.095

  -2.976 -26.945   0.176  -2.927  28.566   0.049 -27.261  30.298  -0.005 -10.578

   5.312   0.046   8.001  17.510   0.006   1.657  -0.468  -0.001  -1.099   1.548

  -0.011   1.527   2.629   0.005   4.278  -0.747  -0.001

          DIAGONAL MATRIX USED AS START HESSIAN

*REMARK   3 AES = 4-(2-Aminoethyl)benzenesulfonyl fluoride res:    1
 PM7 CHARGE=-1 EF NOXYZ PRNT=2 PDBOUT COMPFG GRAPHF
 1H-indole-2,3-dione

  O(HETATM    1  O1  AES A   1)   0.00000000 +1    0.0000000 +1    0.0000000 +1
  O(HETATM    2  O2  AES A   1)   2.87294800 +1    0.0000000 +1    0.0000000 +1     1     0     0
  N(HETATM    3  N   AES A   1)   2.36892300 +1   82.2546170 +1    0.0000000 +1     2     1     0
  C(HETATM    4  C1  AES A   1)   2.29921000 +1   99.0119430 +1   -0.0182590 +1     3     2     1
  C(HETATM    5  C2  AES A   1)   1.39146500 +1   34.5287160 +1 -179.9818950 +1     4     3     2
  C(HETATM    6  C3  AES A   1)   1.20685100 +1   55.8842970 +1    0.0130680 +1     1     2     3
  C(HETATM    7  C4  AES A   1)   1.21138000 +1   56.4308710 +1    0.0283050 +1     2     1     3
  C(HETATM    8  C5  AES A   1)   1.37748400 +1  157.2267860 +1 -179.9328360 +1     4     3     2
  C(HETATM    9  C6  AES A   1)   1.37915300 +1  121.2547300 +1  179.9676810 +1     5     4     3
  C(HETATM   10  C7  AES A   1)   1.39691100 +1  116.7519970 +1   -0.0148920 +1     8     4     3
  C(HETATM   11  C8  AES A   1)   1.39921000 +1  117.2785870 +1    0.0004350 +1     9     5     4
  H(HETATM   12  H8  AES A   1)   1.08696500 +1  119.6024240 +1 -179.9955210 +1    11     9     5
  H(HETATM   13  H5  AES A   1)   1.08325500 +1  122.0863820 +1  179.9591760 +1     8     4     3
  H(HETATM   14  H6  AES A   1)   1.08392000 +1  121.8942940 +1 -179.9892130 +1     9     5     4
  H(HETATM   15  H7  AES A   1)   1.08696900 +1  119.6813830 +1  179.9852590 +1    10     8     4

 XPARAM 
  1  1    0.0000  1  2    0.0000  1  3    0.0000  2  1    2.8729  2  2    0.0000
  2  3    0.0000  3  1    2.3689  3  2    1.4356  3  3    0.0000  4  1    2.2992
  4  2    1.7281  4  3    6.2829  5  1    1.3915  5  2    0.6026  5  3    3.1419
  6  1    1.2069  6  2    0.9754  6  3    0.0002  7  1    1.2114  7  2    0.9849
  7  3    0.0005  8  1    1.3775  8  2    2.7441  8  3    3.1428  9  1    1.3792
  9  2    2.1163  9  3    3.1410 10  1    1.3969 10  2    2.0377 10  3    6.2829
 11  1    1.3992 11  2    2.0469 11  3    0.0000 12  1    1.0870 12  2    2.0875
 12  3    3.1417 13  1    1.0833 13  2    2.1308 13  3    3.1409 14  1    1.0839
 14  2    2.1275 14  3    3.1418 15  1    1.0870 15  2    2.0888 15  3    3.1413
 grad
      -0.00000   -0.00001   -0.00000  -44.62498    0.00000    0.00000    0.77488  -70.99524
       0.00000    3.77845  -12.83483    0.07428  -40.52834   13.53935   -0.02222   53.51034
     -17.23579    0.09525   -2.97612  -26.94530    0.17562   -2.92657   28.56579    0.04920
     -27.26149   30.29834   -0.00537  -10.57783    5.31228    0.04586    8.00086   17.51004
       0.00576    1.65722   -0.46807   -0.00071   -1.09885    1.54809   -0.01110    1.52674
       2.62875    0.00462    4.27839   -0.74715   -0.00144
 CYCLE:     1 TIME:   0.008 TIME LEFT:  2.00D  GRAD.:   126.348 HEAT: -60.68694

          HESSIAN HAS  0 NEGATIVE EIGENVALUE(S)
  MIN SEARCH, CORRECT HESSIAN, TRYING PURE NR STEP
 LAMBDA THAT MINIMIZES ALONG ALL MODES =        0.000000000
 PURE NR-STEP HAS LENGTH   0.18883

  HEAT OF FORMATION        3.9305006462454912    
 PARAMETERS       -0.016   0.016  -0.001   2.902  -0.053   0.043   2.369   1.540
   0.010   2.283   1.758   6.286   1.416   0.580   3.151   1.150   0.999   0.000

   1.211   1.028   0.000   1.387   2.692   3.119   1.406   2.060   3.127   1.398

   2.050   6.270   1.399   1.997  -0.013   1.085   2.091   3.136   1.084   2.131

   3.136   1.082   2.125   3.136   1.083   2.093   3.136
 GRADIENT         -0.000  -0.000  -0.000  58.501   0.000   0.000 162.042 397.611
   0.000 -62.266 218.004  -0.160-387.321 962.706 -60.857-190.065  16.177  -0.013

 -14.719 -40.000  -0.363-152.704-952.056  60.452-198.466-974.627  58.215 169.904

-461.177  35.900 208.873-496.913  29.606 -25.542  29.845  -5.626   0.635   2.428

  -1.230   6.651  -0.097  -1.384 -14.269  13.986  -4.817
       HoF         ACTUAL,  PREDICTED ENERGY CHANGE, RATIO
     3.9305006    64.6174393          -9.9377994   -6.5021879
 UNACCEPTABLE RATIO, REJECTING STEP, REDUCING DMAX TO 0.0944
  MIN SEARCH, CORRECT HESSIAN, TRYING PURE NR STEP
 LAMBDA THAT MINIMIZES ALONG ALL MODES =        0.000000000
 PURE NR-STEP HAS LENGTH   0.18883
 LAMBDA THAT MINIMIZES ALONG ALL MODES =      -19.216133512
 P-RFO-STEP   HAS LENGTH   0.18176
 LAMBDA THAT MINIMIZES ALONG ALL MODES =     -538.425625060
 QA/TRIM-STEP HAS LENGTH   0.09442

  HEAT OF FORMATION       -49.827550186113513    
 PARAMETERS       -0.010   0.008  -0.001   2.892  -0.027   0.014   2.370   1.485
   0.003   2.287   1.744   6.284   1.407   0.592   3.145   1.170   0.986   0.000

   1.212   1.005   0.000   1.383   2.719   3.135   1.396   2.090   3.137   1.396

   2.045   6.279   1.400   2.022  -0.004   1.086   2.090   3.140   1.084   2.131

   3.139   1.083   2.127   3.140   1.084   2.091   3.140
 GRADIENT         -0.000  -0.000  -0.000  14.351   0.000   0.000 119.391 250.993
   0.000 -29.222 173.444   0.134-132.835 329.475   1.652-113.176 -16.078   0.176

 -13.015 -26.427   0.002 -41.718-294.925  -1.689 -78.139-307.048  -2.111  46.112

-146.443  -1.833  64.820-165.491  -2.468  -9.104  11.900  -1.177  -0.243   2.100

  -0.454   4.181   1.438  -0.442  -3.878   5.416  -1.115
       HoF         ACTUAL,  PREDICTED ENERGY CHANGE, RATIO
   -49.8275502    10.8593885          -7.6098504   -1.4270173
 UNACCEPTABLE RATIO, REJECTING STEP, REDUCING DMAX TO 0.0472
  MIN SEARCH, CORRECT HESSIAN, TRYING PURE NR STEP
 LAMBDA THAT MINIMIZES ALONG ALL MODES =        0.000000000
 PURE NR-STEP HAS LENGTH   0.18883
 LAMBDA THAT MINIMIZES ALONG ALL MODES =      -19.216133512
 P-RFO-STEP   HAS LENGTH   0.18176
 LAMBDA THAT MINIMIZES ALONG ALL MODES =    -1695.385687211
 QA/TRIM-STEP HAS LENGTH   0.04721

  HEAT OF FORMATION       -60.747228689986514    
 PARAMETERS       -0.005   0.004  -0.001   2.884  -0.013   0.006   2.370   1.459
   0.001   2.292   1.736   6.283   1.400   0.598   3.143   1.186   0.980   0.000

   1.212   0.994   0.000   1.381   2.732   3.140   1.389   2.104   3.139   1.396

   2.042   6.281   1.400   2.035  -0.002   1.086   2.088   3.141   1.084   2.131

   3.140   1.083   2.127   3.141   1.085   2.090   3.141
 GRADIENT         -0.000  -0.000  -0.000 -14.368   0.000   0.000  70.705 111.721
   0.000 -11.395 100.719   0.087 -66.930 135.596   2.826 -41.836 -22.928   0.138

  -9.155 -23.682   0.111 -14.627 -94.019  -2.802 -42.899 -98.885  -2.964   9.855

 -52.138  -2.112  28.277 -54.509  -2.173  -2.875   4.782  -0.394  -0.647   1.822

  -0.199   2.856   2.136  -0.177   0.558   1.902  -0.391
       HoF         ACTUAL,  PREDICTED ENERGY CHANGE, RATIO
   -60.7472287    -0.0602900          -4.5324429    0.0133019
     STEPSIZE USED IS  0.04721
 CALCULATED STEP
    -0.005490  0.003625 -0.000535  0.011066 -0.012821  0.005681  0.000839  0.023042
     0.001413 -0.007460  0.007669  0.000595  0.008572 -0.004885  0.001036 -0.020669
     0.005006 -0.000065  0.000326  0.009407 -0.000117  0.003272 -0.011658 -0.003009
     0.009766 -0.012459 -0.001810 -0.000883  0.003878 -0.001658  0.000544 -0.011775
    -0.001649 -0.000750  0.001022 -0.000668  0.000324  0.000109 -0.000688 -0.000654
    -0.000384 -0.000694 -0.001720  0.001149 -0.000668
     NEW TRUST RADIUS =  0.04721

     HESSIAN IS BEING UPDATED USING THE BFGS UPDATE

*REMARK   3 AES = 4-(2-Aminoethyl)benzenesulfonyl fluoride res:    1
 PM7 CHARGE=-1 EF NOXYZ PRNT=2 PDBOUT COMPFG GRAPHF
 1H-indole-2,3-dione

  O(HETATM    1  O1  AES A   1)  -0.00548959 +1    0.0036246 +1   -0.0005351 +1
  O(HETATM    2  O2  AES A   1)   2.88401448 +1   -0.7346087 +1    0.3255112 +1     1     0     0
  N(HETATM    3  N   AES A   1)   2.36976204 +1   83.5748052 +1    0.0809422 +1     2     1     0
  C(HETATM    4  C1  AES A   1)   2.29175001 +1   99.4513308 +1    0.0158037 +1     3     2     1
  C(HETATM    5  C2  AES A   1)   1.40003728 +1   34.2488538 +1 -179.9225241 +1     4     3     2
  C(HETATM    6  C3  AES A   1)   1.18618201 +1   56.1711184 +1    0.0093498 +1     1     2     3
  C(HETATM    7  C4  AES A   1)   1.21170592 +1   56.9698313 +1    0.0216274 +1     2     1     3
  C(HETATM    8  C5  AES A   1)   1.38075588 +1  156.5588115 +1  179.8947344 +1     4     3     2
  C(HETATM    9  C6  AES A   1)   1.38891923 +1  120.5409050 +1  179.8639653 +1     5     4     3
  C(HETATM   10  C7  AES A   1)   1.39602799 +1  116.9741961 +1   -0.1098768 +1     8     4     3
  C(HETATM   11  C8  AES A   1)   1.39975428 +1  116.6039175 +1   -0.0940696 +1     9     5     4
  H(HETATM   12  H8  AES A   1)   1.08621539 +1  119.6609894 +1  179.9662071 +1    11     9     5
  H(HETATM   13  H5  AES A   1)   1.08357894 +1  122.0926132 +1  179.9197648 +1     8     4     3
  H(HETATM   14  H6  AES A   1)   1.08326557 +1  121.8722912 +1  179.9710249 +1     9     5     4
  H(HETATM   15  H7  AES A   1)   1.08524866 +1  119.7472225 +1  179.9469669 +1    10     8     4

 XPARAM 
  1  1   -0.0055  1  2    0.0036  1  3   -0.0005  2  1    2.8840  2  2   -0.0128
  2  3    0.0057  3  1    2.3698  3  2    1.4587  3  3    0.0014  4  1    2.2918
  4  2    1.7358  4  3    6.2835  5  1    1.4000  5  2    0.5978  5  3    3.1429
  6  1    1.1862  6  2    0.9804  6  3    0.0002  7  1    1.2117  7  2    0.9943
  7  3    0.0004  8  1    1.3808  8  2    2.7325  8  3    3.1398  9  1    1.3889
  9  2    2.1038  9  3    3.1392 10  1    1.3960 10  2    2.0416 10  3    6.2813
 11  1    1.3998 11  2    2.0351 11  3   -0.0016 12  1    1.0862 12  2    2.0885
 12  3    3.1410 13  1    1.0836 13  2    2.1309 13  3    3.1402 14  1    1.0833
 14  2    2.1271 14  3    3.1411 15  1    1.0852 15  2    2.0900 15  3    3.1407
 grad
      -0.00000   -0.00001   -0.00000  -14.36808    0.00000    0.00000   70.70471  111.72128
       0.00000  -11.39538  100.71873    0.08681  -66.93007  135.59552    2.82606  -41.83638
     -22.92786    0.13845   -9.15502  -23.68234    0.11122  -14.62742  -94.01858   -2.80243
     -42.89852  -98.88504   -2.96408    9.85506  -52.13845   -2.11212   28.27708  -54.50923
      -2.17307   -2.87495    4.78177   -0.39376   -0.64663    1.82198   -0.19902    2.85632
       2.13631   -0.17696    0.55804    1.90210   -0.39125
 CYCLE:     2 TIME:   0.016 TIME LEFT:  2.00D  GRAD.:   284.766 HEAT: -60.74723

          HESSIAN HAS  0 NEGATIVE EIGENVALUE(S)
  MIN SEARCH, CORRECT HESSIAN, TRYING PURE NR STEP
 LAMBDA THAT MINIMIZES ALONG ALL MODES =        0.000000000
 PURE NR-STEP HAS LENGTH   0.34359
 LAMBDA THAT MINIMIZES ALONG ALL MODES =      -30.394200142
 P-RFO-STEP   HAS LENGTH   0.30353
 LAMBDA THAT MINIMIZES ALONG ALL MODES =    -1648.830967949
 QA/TRIM-STEP HAS LENGTH   0.04721

  HEAT OF FORMATION       -56.309920929095824    
 PARAMETERS       -0.009   0.003  -0.001   2.897  -0.021   0.010   2.360   1.459
   0.002   2.284   1.727   6.284   1.416   0.571   3.143   1.174   0.987  -0.000

   1.213   1.005   0.000   1.382   2.740   3.138   1.401   2.111   3.138   1.391

   2.054   6.280   1.395   2.035  -0.003   1.085   2.088   3.140   1.083   2.131

   3.140   1.082   2.126   3.140   1.083   2.090   3.140
 GRADIENT         -0.000  -0.000  -0.000   2.830   0.000   0.000  24.355  71.767
   0.000 -59.134  63.675   0.109 101.975-273.431   8.857 -73.536  -5.309   0.065

  22.485  17.990  -0.046  53.954 237.526  -8.790  19.228 226.980  -8.983 -32.348

 121.175  -6.172 -23.028 101.488  -5.801   5.053  -5.051  -0.456  -1.506   3.383

  -0.349   2.000   2.633  -0.303   9.991 -10.354  -0.342
       HoF         ACTUAL,  PREDICTED ENERGY CHANGE, RATIO
   -56.3099209     4.4373078          -6.3126932   -0.7029183
 UNACCEPTABLE RATIO, REJECTING STEP, REDUCING DMAX TO 0.0236
  MIN SEARCH, CORRECT HESSIAN, TRYING PURE NR STEP
 LAMBDA THAT MINIMIZES ALONG ALL MODES =        0.000000000
 PURE NR-STEP HAS LENGTH   0.34359
 LAMBDA THAT MINIMIZES ALONG ALL MODES =      -30.394200142
 P-RFO-STEP   HAS LENGTH   0.30353
 LAMBDA THAT MINIMIZES ALONG ALL MODES =    -4604.635479516
 QA/TRIM-STEP HAS LENGTH   0.02360

  HEAT OF FORMATION       -61.514093859441346    
 PARAMETERS       -0.006   0.003  -0.001   2.889  -0.015   0.007   2.364   1.455
   0.002   2.289   1.730   6.284   1.408   0.584   3.143   1.184   0.983   0.000

   1.212   0.998   0.000   1.381   2.738   3.139   1.394   2.110   3.139   1.393

   2.048   6.281   1.397   2.037  -0.002   1.086   2.088   3.141   1.083   2.131

   3.140   1.082   2.127   3.141   1.084   2.090   3.140
 GRADIENT         -0.000  -0.000  -0.000  -9.743   0.000   0.000  33.163  57.532
   0.000 -32.147  61.135   0.084  42.059-133.444   5.655 -41.087 -12.023   0.099

   8.786  -0.319   0.040  30.725 137.623  -5.609   0.011 130.400  -5.790 -23.266

  66.944  -3.997  -9.332  57.639  -3.821   2.577  -1.768  -0.375  -1.234   2.668

  -0.248   2.144   2.534  -0.218   6.802  -5.579  -0.328
       HoF         ACTUAL,  PREDICTED ENERGY CHANGE, RATIO
   -61.5140939    -0.7668652          -4.2056186    0.1823430
     STEPSIZE USED IS  0.02360
 CALCULATED STEP
    -0.000874 -0.000649 -0.000275  0.004906 -0.002057  0.001629 -0.006105 -0.004058
     0.000356 -0.002659 -0.006057  0.000119  0.007628 -0.013374 -0.000030 -0.002395
     0.002918 -0.000111  0.000723  0.004042 -0.000110  0.000310  0.005889 -0.000651
     0.004900  0.006138 -0.000287 -0.002813  0.006245 -0.000338 -0.003076  0.001881
    -0.000322 -0.000360 -0.000212 -0.000176 -0.000255 -0.000164 -0.000200 -0.000817
    -0.000311 -0.000204 -0.000915  0.000081 -0.000176
     NEW TRUST RADIUS =  0.02360
*REMARK   3 AES = 4-(2-Aminoethyl)benzenesulfonyl fluoride res:    1
 PM7 CHARGE=-1 EF NOXYZ PRNT=2 PDBOUT COMPFG GRAPHF
 1H-indole-2,3-dione

  O(HETATM    1  O1  AES A   1)  -0.00636355 +1    0.0029754 +1   -0.0008100 +1
  O(HETATM    2  O2  AES A   1)   2.88892097 +1   -0.8524594 +1    0.4188455 +1     1     0     0
  N(HETATM    3  N   AES A   1)   2.36365738 +1   83.3422942 +1    0.1013158 +1     2     1     0
  C(HETATM    4  C1  AES A   1)   2.28909058 +1   99.1043089 +1    0.0226297 +1     3     2     1
  C(HETATM    5  C2  AES A   1)   1.40766559 +1   33.4825601 +1 -179.9242383 +1     4     3     2
  C(HETATM    6  C3  AES A   1)   1.18378689 +1   56.3382847 +1    0.0030160 +1     1     2     3
  C(HETATM    7  C4  AES A   1)   1.21242922 +1   57.2014483 +1    0.0153400 +1     2     1     3
  C(HETATM    8  C5  AES A   1)   1.38106550 +1  156.8962283 +1  179.8574412 +1     4     3     2
  C(HETATM    9  C6  AES A   1)   1.39381930 +1  120.8925667 +1  179.8475363 +1     5     4     3
  C(HETATM   10  C7  AES A   1)   1.39321525 +1  117.3319887 +1   -0.1292207 +1     8     4     3
  C(HETATM   11  C8  AES A   1)   1.39667825 +1  116.7116658 +1   -0.1124968 +1     9     5     4
  H(HETATM   12  H8  AES A   1)   1.08585556 +1  119.6488510 +1  179.9561482 +1    11     9     5
  H(HETATM   13  H5  AES A   1)   1.08332369 +1  122.0832254 +1  179.9082914 +1     8     4     3
  H(HETATM   14  H6  AES A   1)   1.08244852 +1  121.8544653 +1  179.9593576 +1     9     5     4
  H(HETATM   15  H7  AES A   1)   1.08433413 +1  119.7518715 +1  179.9368761 +1    10     8     4

 XPARAM 
  1  1   -0.0064  1  2    0.0030  1  3   -0.0008  2  1    2.8889  2  2   -0.0149
  2  3    0.0073  3  1    2.3637  3  2    1.4546  3  3    0.0018  4  1    2.2891
  4  2    1.7297  4  3    6.2836  5  1    1.4077  5  2    0.5844  5  3    3.1429
  6  1    1.1838  6  2    0.9833  6  3    0.0001  7  1    1.2124  7  2    0.9984
  7  3    0.0003  8  1    1.3811  8  2    2.7384  8  3    3.1391  9  1    1.3938
  9  2    2.1100  9  3    3.1389 10  1    1.3932 10  2    2.0478 10  3    6.2809
 11  1    1.3967 11  2    2.0370 11  3   -0.0020 12  1    1.0859 12  2    2.0883
 12  3    3.1408 13  1    1.0833 13  2    2.1308 13  3    3.1400 14  1    1.0824
 14  2    2.1268 14  3    3.1409 15  1    1.0843 15  2    2.0901 15  3    3.1405
 grad
      -0.00000   -0.00001   -0.00000   -9.74266    0.00000    0.00000   33.16339   57.53231
       0.00000  -32.14711   61.13509    0.08445   42.05866 -133.44449    5.65459  -41.08712
     -12.02318    0.09912    8.78585   -0.31896    0.04046   30.72481  137.62320   -5.60908
       0.01138  130.40016   -5.78968  -23.26566   66.94443   -3.99681   -9.33196   57.63864
      -3.82113    2.57709   -1.76842   -0.37526   -1.23434    2.66750   -0.24827    2.14404
       2.53372   -0.21752    6.80237   -5.57900   -0.32824
 CYCLE:     3 TIME:   0.008 TIME LEFT:  2.00D  GRAD.:   276.256 HEAT: -61.51409

          HESSIAN HAS  0 NEGATIVE EIGENVALUE(S)
  MIN SEARCH, CORRECT HESSIAN, TRYING PURE NR STEP
 LAMBDA THAT MINIMIZES ALONG ALL MODES =        0.000000000
 PURE NR-STEP HAS LENGTH   0.25415
 LAMBDA THAT MINIMIZES ALONG ALL MODES =      -30.381916574
 P-RFO-STEP   HAS LENGTH   0.23809
 LAMBDA THAT MINIMIZES ALONG ALL MODES =    -4943.982435058
 QA/TRIM-STEP HAS LENGTH   0.02360

  HEAT OF FORMATION       -63.146414096569060    
 PARAMETERS       -0.005   0.004  -0.000   2.892  -0.011   0.009   2.355   1.443
   0.002   2.292   1.724   6.283   1.407   0.595   3.142   1.191   0.988   0.000

   1.212   1.002   0.000   1.377   2.734   3.138   1.395   2.106   3.139   1.393

   2.051   6.281   1.395   2.036  -0.002   1.085   2.089   3.141   1.083   2.132

   3.140   1.082   2.128   3.141   1.083   2.092   3.140
 GRADIENT         -0.000  -0.000  -0.000  -7.384   0.000   0.000 -32.551 -78.568
   0.000 -25.444 -42.787  -0.143 -18.135   1.058   4.981   7.225  20.040  -0.060

  15.645  18.368  -0.010  -3.250  26.345  -5.033 -14.834  16.720  -5.168  -9.727

   9.045  -3.634   5.850   3.327  -3.554  -0.875   1.653  -0.469  -2.182   2.952

  -0.272   1.715   2.843  -0.238   2.542  -1.651  -0.438
       HoF         ACTUAL,  PREDICTED ENERGY CHANGE, RATIO
   -63.1464141    -1.6323202          -3.5619475    0.4582662
     STEPSIZE USED IS  0.02360
 CALCULATED STEP
     0.001126  0.000858  0.000709  0.002815  0.003439  0.001640 -0.008185 -0.011775
    -0.000125  0.002453 -0.005917 -0.000413 -0.000567  0.010872 -0.000443  0.007625
     0.004556 -0.000012 -0.000132  0.003233 -0.000009 -0.004113 -0.004823 -0.000712
     0.001285 -0.003640 -0.000080 -0.000184  0.003212 -0.000302 -0.001335 -0.001067
    -0.000308 -0.000451  0.001142 -0.000234 -0.000217  0.000837 -0.000275 -0.000783
     0.000836 -0.000280 -0.001104  0.001779 -0.000241
     NEW TRUST RADIUS =  0.02360
*REMARK   3 AES = 4-(2-Aminoethyl)benzenesulfonyl fluoride res:    1
 PM7 CHARGE=-1 EF NOXYZ PRNT=2 PDBOUT COMPFG GRAPHF
 1H-indole-2,3-dione

  O(HETATM    1  O1  AES A   1)  -0.00523781 +1    0.0038332 +1   -0.0001007 +1
  O(HETATM    2  O2  AES A   1)   2.89173559 +1   -0.6554281 +1    0.5128021 +1     1     0     0
  N(HETATM    3  N   AES A   1)   2.35547193 +1   82.6676101 +1    0.0941747 +1     2     1     0
  C(HETATM    4  C1  AES A   1)   2.29154310 +1   98.7653015 +1   -0.0010060 +1     3     2     1
  C(HETATM    5  C2  AES A   1)   1.40709861 +1   34.1054862 +1 -179.9496113 +1     4     3     2
  C(HETATM    6  C3  AES A   1)   1.19141150 +1   56.5993014 +1    0.0023042 +1     1     2     3
  C(HETATM    7  C4  AES A   1)   1.21229765 +1   57.3866859 +1    0.0148240 +1     2     1     3
  C(HETATM    8  C5  AES A   1)   1.37695289 +1  156.6199012 +1  179.8166285 +1     4     3     2
  C(HETATM    9  C6  AES A   1)   1.39510461 +1  120.6840277 +1  179.8429638 +1     5     4     3
  C(HETATM   10  C7  AES A   1)   1.39303113 +1  117.5160388 +1   -0.1465227 +1     8     4     3
  C(HETATM   11  C8  AES A   1)   1.39534277 +1  116.6505170 +1   -0.1301191 +1     9     5     4
  H(HETATM   12  H8  AES A   1)   1.08540462 +1  119.7143006 +1  179.9427363 +1    11     9     5
  H(HETATM   13  H5  AES A   1)   1.08310717 +1  122.1311987 +1  179.8925205 +1     8     4     3
  H(HETATM   14  H6  AES A   1)   1.08166527 +1  121.9023385 +1  179.9433404 +1     9     5     4
  H(HETATM   15  H7  AES A   1)   1.08322999 +1  119.8537806 +1  179.9230877 +1    10     8     4

 XPARAM 
  1  1   -0.0052  1  2    0.0038  1  3   -0.0001  2  1    2.8917  2  2   -0.0114
  2  3    0.0090  3  1    2.3555  3  2    1.4428  3  3    0.0016  4  1    2.2915
  4  2    1.7238  4  3    6.2832  5  1    1.4071  5  2    0.5953  5  3    3.1425
  6  1    1.1914  6  2    0.9878  6  3    0.0000  7  1    1.2123  7  2    1.0016
  7  3    0.0003  8  1    1.3770  8  2    2.7335  8  3    3.1384  9  1    1.3951
  9  2    2.1063  9  3    3.1389 10  1    1.3930 10  2    2.0510 10  3    6.2806
 11  1    1.3953 11  2    2.0359 11  3   -0.0023 12  1    1.0854 12  2    2.0894
 12  3    3.1406 13  1    1.0831 13  2    2.1316 13  3    3.1397 14  1    1.0817
 14  2    2.1276 14  3    3.1406 15  1    1.0832 15  2    2.0918 15  3    3.1403
 grad
      -0.00000   -0.00001   -0.00000   -7.38388    0.00000    0.00000  -32.55059  -78.56795
       0.00000  -25.44410  -42.78652   -0.14323  -18.13470    1.05760    4.98128    7.22532
      20.03957   -0.06033   15.64470   18.36790   -0.01014   -3.25009   26.34452   -5.03319
     -14.83392   16.71995   -5.16844   -9.72683    9.04493   -3.63399    5.84965    3.32749
      -3.55376   -0.87498    1.65284   -0.46899   -2.18189    2.95170   -0.27171    1.71452
       2.84260   -0.23837    2.54223   -1.65140   -0.43763
 CYCLE:     4 TIME:   0.008 TIME LEFT:  2.00D  GRAD.:   112.682 HEAT: -63.14641

          HESSIAN HAS  0 NEGATIVE EIGENVALUE(S)
  MIN SEARCH, CORRECT HESSIAN, TRYING PURE NR STEP
 LAMBDA THAT MINIMIZES ALONG ALL MODES =        0.000000000
 PURE NR-STEP HAS LENGTH   0.08328
 LAMBDA THAT MINIMIZES ALONG ALL MODES =       -5.306321135
 P-RFO-STEP   HAS LENGTH   0.08220
 LAMBDA THAT MINIMIZES ALONG ALL MODES =    -1891.087598716
 QA/TRIM-STEP HAS LENGTH   0.02360

  HEAT OF FORMATION       -62.750064272426243    
 PARAMETERS       -0.009   0.008  -0.003   2.892  -0.016   0.012   2.360   1.457
   0.002   2.294   1.730   6.284   1.407   0.597   3.140   1.193   0.984  -0.001

   1.207   0.998  -0.001   1.376   2.724   3.139   1.399   2.101   3.140   1.391

   2.051   6.281   1.395   2.035  -0.002   1.085   2.090   3.140   1.083   2.131

   3.139   1.080   2.127   3.140   1.081   2.094   3.140
 GRADIENT         -0.000  -0.000  -0.000  -8.771   0.000   0.000  37.920  55.037
   0.000 -13.423  58.031  -0.336 -63.283 140.065   1.803 -18.462  -6.742  -0.359

  -9.613  -6.815  -0.342 -26.316 -96.151  -1.955 -30.834-101.015  -1.965   4.600

 -52.849  -1.392  26.553 -53.508  -1.423  -3.822   4.482  -0.303  -2.154   2.750

  -0.158   1.401   3.026  -0.134  -2.059   2.141  -0.279
       HoF         ACTUAL,  PREDICTED ENERGY CHANGE, RATIO
   -62.7500643     0.3963498          -1.6343112   -0.2425180
 UNACCEPTABLE RATIO, REJECTING STEP, REDUCING DMAX TO 0.0118
  MIN SEARCH, CORRECT HESSIAN, TRYING PURE NR STEP
 LAMBDA THAT MINIMIZES ALONG ALL MODES =        0.000000000
 PURE NR-STEP HAS LENGTH   0.08328
 LAMBDA THAT MINIMIZES ALONG ALL MODES =       -5.306321135
 P-RFO-STEP   HAS LENGTH   0.08220
 LAMBDA THAT MINIMIZES ALONG ALL MODES =    -5713.786005217
 QA/TRIM-STEP HAS LENGTH   0.01180

  HEAT OF FORMATION       -63.525338553627080    
 PARAMETERS       -0.007   0.006  -0.001   2.891  -0.014   0.010   2.359   1.450
   0.002   2.293   1.728   6.283   1.407   0.596   3.141   1.191   0.986  -0.000

   1.210   1.000  -0.000   1.377   2.729   3.139   1.397   2.104   3.139   1.392

   2.051   6.281   1.395   2.035  -0.002   1.085   2.089   3.140   1.083   2.131

   3.140   1.081   2.127   3.140   1.083   2.092   3.140
 GRADIENT         -0.000  -0.000  -0.000  -8.550   0.000   0.000   9.579   2.235
   0.000 -19.348  18.862  -0.202 -38.742  66.361   3.529 -10.393   3.521  -0.159

   1.888   3.705  -0.124 -12.445 -31.798  -3.605 -22.280 -38.349  -3.719  -3.631

 -20.358  -2.618  14.974 -23.555  -2.620  -2.290   3.071  -0.411  -2.042   2.837

  -0.225   1.675   2.835  -0.193   0.385   0.260  -0.392
       HoF         ACTUAL,  PREDICTED ENERGY CHANGE, RATIO
   -63.5253386    -0.3789245          -0.9823795    0.3857210
     STEPSIZE USED IS  0.01180
 CALCULATED STEP
    -0.001624  0.001923 -0.001042 -0.000281 -0.002193  0.001033  0.003092  0.007329
     0.000327  0.001068  0.003798  0.000231 -0.000193  0.000866 -0.000982 -0.000064
    -0.002107 -0.000332 -0.002344 -0.002070 -0.000328 -0.000032 -0.004170  0.000318
     0.001666 -0.002672  0.000466 -0.000949 -0.000510  0.000214  0.000061 -0.000792
     0.000204 -0.000130  0.000013 -0.000095  0.000108 -0.000204 -0.000131 -0.000503
    -0.000191 -0.000136 -0.000692  0.000573 -0.000101
     NEW TRUST RADIUS =  0.01180
*REMARK   3 AES = 4-(2-Aminoethyl)benzenesulfonyl fluoride res:    1
 PM7 CHARGE=-1 EF NOXYZ PRNT=2 PDBOUT COMPFG GRAPHF
 1H-indole-2,3-dione

  O(HETATM    1  O1  AES A   1)  -0.00686173 +1    0.0057557 +1   -0.0011426 +1
  O(HETATM    2  O2  AES A   1)   2.89145417 +1   -0.7810579 +1    0.5719789 +1     1     0     0
  N(HETATM    3  N   AES A   1)   2.35856423 +1   83.0875073 +1    0.1129201 +1     2     1     0
  C(HETATM    4  C1  AES A   1)   2.29261084 +1   98.9829070 +1    0.0122299 +1     3     2     1
  C(HETATM    5  C2  AES A   1)   1.40690538 +1   34.1551192 +1  179.9941015 +1     4     3     2
  C(HETATM    6  C3  AES A   1)   1.19134718 +1   56.4785688 +1   -0.0167202 +1     1     2     3
  C(HETATM    7  C4  AES A   1)   1.20995331 +1   57.2680849 +1   -0.0039554 +1     2     1     3
  C(HETATM    8  C5  AES A   1)   1.37692134 +1  156.3809916 +1  179.8348537 +1     4     3     2
  C(HETATM    9  C6  AES A   1)   1.39677109 +1  120.5309166 +1  179.8696826 +1     5     4     3
  C(HETATM   10  C7  AES A   1)   1.39208176 +1  117.4868053 +1   -0.1342797 +1     8     4     3
  C(HETATM   11  C8  AES A   1)   1.39540359 +1  116.6051215 +1   -0.1184163 +1     9     5     4
  H(HETATM   12  H8  AES A   1)   1.08527441 +1  119.7150440 +1  179.9373074 +1    11     9     5
  H(HETATM   13  H5  AES A   1)   1.08321487 +1  122.1195094 +1  179.8850257 +1     8     4     3
  H(HETATM   14  H6  AES A   1)   1.08116277 +1  121.8914004 +1  179.9355219 +1     9     5     4
  H(HETATM   15  H7  AES A   1)   1.08253810 +1  119.8865973 +1  179.9173267 +1    10     8     4

 XPARAM 
  1  1   -0.0069  1  2    0.0058  1  3   -0.0011  2  1    2.8915  2  2   -0.0136
  2  3    0.0100  3  1    2.3586  3  2    1.4502  3  3    0.0020  4  1    2.2926
  4  2    1.7276  4  3    6.2834  5  1    1.4069  5  2    0.5961  5  3    3.1415
  6  1    1.1913  6  2    0.9857  6  3   -0.0003  7  1    1.2100  7  2    0.9995
  7  3   -0.0001  8  1    1.3769  8  2    2.7294  8  3    3.1387  9  1    1.3968
  9  2    2.1037  9  3    3.1393 10  1    1.3921 10  2    2.0505 10  3    6.2808
 11  1    1.3954 11  2    2.0351 11  3   -0.0021 12  1    1.0853 12  2    2.0894
 12  3    3.1405 13  1    1.0832 13  2    2.1314 13  3    3.1396 14  1    1.0812
 14  2    2.1274 14  3    3.1405 15  1    1.0825 15  2    2.0924 15  3    3.1401
 grad
      -0.00000   -0.00001   -0.00000   -8.54968    0.00000    0.00000    9.57920    2.23538
       0.00000  -19.34839   18.86239   -0.20199  -38.74160   66.36060    3.52922  -10.39317
       3.52059   -0.15905    1.88824    3.70480   -0.12400  -12.44490  -31.79797   -3.60484
     -22.27956  -38.34921   -3.71919   -3.63082  -20.35814   -2.61756   14.97363  -23.55489
      -2.62009   -2.28956    3.07105   -0.41078   -2.04150    2.83683   -0.22488    1.67498
       2.83465   -0.19291    0.38503    0.25980   -0.39242
 CYCLE:     5 TIME:   0.008 TIME LEFT:  2.00D  GRAD.:   106.647 HEAT: -63.52534

          HESSIAN HAS  0 NEGATIVE EIGENVALUE(S)
  MIN SEARCH, CORRECT HESSIAN, TRYING PURE NR STEP
 LAMBDA THAT MINIMIZES ALONG ALL MODES =        0.000000000
 PURE NR-STEP HAS LENGTH   0.05480
 LAMBDA THAT MINIMIZES ALONG ALL MODES =       -1.765478036
 P-RFO-STEP   HAS LENGTH   0.05451
 LAMBDA THAT MINIMIZES ALONG ALL MODES =    -1848.269414732
 QA/TRIM-STEP HAS LENGTH   0.01180

  HEAT OF FORMATION       -63.946451522322604    
 PARAMETERS       -0.008   0.008  -0.003   2.893  -0.015   0.013   2.357   1.452
   0.003   2.294   1.726   6.284   1.410   0.592   3.139   1.194   0.985  -0.001

   1.208   0.998  -0.001   1.376   2.727   3.139   1.400   2.105   3.140   1.389

   2.055   6.281   1.393   2.037  -0.002   1.085   2.090   3.140   1.083   2.131

   3.139   1.080   2.127   3.140   1.081   2.094   3.140
 GRADIENT         -0.000  -0.000  -0.000  -9.563   0.000   0.000  10.085   2.413
   0.000 -20.723  18.043  -0.326  -9.576   1.469   2.746  -4.365   2.035  -0.379

  -1.507   1.704  -0.329  -2.259  27.701  -2.736  -8.808  21.894  -2.914 -15.358

  10.327  -1.926   3.576   6.827  -1.972  -1.012   1.167  -0.264  -2.453   3.228

  -0.162   0.753   3.270  -0.126   1.176  -1.503  -0.246
       HoF         ACTUAL,  PREDICTED ENERGY CHANGE, RATIO
   -63.9464515    -0.4211130          -0.4895709    0.8601676
     STEPSIZE USED IS  0.01180
 CALCULATED STEP
    -0.001578  0.002335 -0.001660  0.001213 -0.001070  0.002829 -0.001288  0.001831
     0.000568  0.001791 -0.001530  0.000281  0.003178 -0.004015 -0.002057  0.003104
    -0.001080 -0.000599 -0.002420 -0.001974 -0.000596 -0.000684 -0.001988  0.000196
     0.002993  0.000986  0.000806 -0.002710  0.004095  0.000209 -0.002570  0.001819
     0.000204 -0.000322  0.000098 -0.000296 -0.000049 -0.000318 -0.000391 -0.001299
    -0.000292 -0.000407 -0.001333  0.001371 -0.000310
     NEW TRUST RADIUS =  0.01669
*REMARK   3 AES = 4-(2-Aminoethyl)benzenesulfonyl fluoride res:    1
 PM7 CHARGE=-1 EF NOXYZ PRNT=2 PDBOUT COMPFG GRAPHF
 1H-indole-2,3-dione

  O(HETATM    1  O1  AES A   1)  -0.00843932 +1    0.0080909 +1   -0.0028024 +1
  O(HETATM    2  O2  AES A   1)   2.89266682 +1   -0.8423809 +1    0.7340776 +1     1     0     0
  N(HETATM    3  N   AES A   1)   2.35727663 +1   83.1923908 +1    0.1454918 +1     2     1     0
  C(HETATM    4  C1  AES A   1)   2.29440189 +1   98.8952569 +1    0.0283194 +1     3     2     1
  C(HETATM    5  C2  AES A   1)   1.41008292 +1   33.9250734 +1  179.8762515 +1     4     3     2
  C(HETATM    6  C3  AES A   1)   1.19445148 +1   56.4167107 +1   -0.0510568 +1     1     2     3
  C(HETATM    7  C4  AES A   1)   1.20753360 +1   57.1550105 +1   -0.0380981 +1     2     1     3
  C(HETATM    8  C5  AES A   1)   1.37623739 +1  156.2671114 +1  179.8460554 +1     4     3     2
  C(HETATM    9  C6  AES A   1)   1.39976375 +1  120.5874235 +1  179.9158390 +1     5     4     3
  C(HETATM   10  C7  AES A   1)   1.38937157 +1  117.7214590 +1   -0.1222801 +1     8     4     3
  C(HETATM   11  C8  AES A   1)   1.39283362 +1  116.7093245 +1   -0.1067349 +1     9     5     4
  H(HETATM   12  H8  AES A   1)   1.08495280 +1  119.7206374 +1  179.9203630 +1    11     9     5
  H(HETATM   13  H5  AES A   1)   1.08316538 +1  122.1012749 +1  179.8626202 +1     8     4     3
  H(HETATM   14  H6  AES A   1)   1.07986332 +1  121.8746524 +1  179.9122229 +1     9     5     4
  H(HETATM   15  H7  AES A   1)   1.08120504 +1  119.9651422 +1  179.8995419 +1    10     8     4

 XPARAM 
  1  1   -0.0084  1  2    0.0081  1  3   -0.0028  2  1    2.8927  2  2   -0.0147
  2  3    0.0128  3  1    2.3573  3  2    1.4520  3  3    0.0025  4  1    2.2944
  4  2    1.7260  4  3    6.2837  5  1    1.4101  5  2    0.5921  5  3    3.1394
  6  1    1.1945  6  2    0.9847  6  3   -0.0009  7  1    1.2075  7  2    0.9975
  7  3   -0.0007  8  1    1.3762  8  2    2.7274  8  3    3.1389  9  1    1.3998
  9  2    2.1046  9  3    3.1401 10  1    1.3894 10  2    2.0546 10  3    6.2811
 11  1    1.3928 11  2    2.0370 11  3   -0.0019 12  1    1.0850 12  2    2.0895
 12  3    3.1402 13  1    1.0832 13  2    2.1311 13  3    3.1392 14  1    1.0799
 14  2    2.1271 14  3    3.1401 15  1    1.0812 15  2    2.0938 15  3    3.1398
 grad
      -0.00000   -0.00001   -0.00000   -9.56330    0.00000    0.00000   10.08464    2.41251
       0.00000  -20.72268   18.04309   -0.32575   -9.57568    1.46916    2.74578   -4.36475
       2.03526   -0.37906   -1.50679    1.70437   -0.32913   -2.25907   27.70137   -2.73642
      -8.80844   21.89439   -2.91396  -15.35797   10.32667   -1.92596    3.57589    6.82738
      -1.97205   -1.01218    1.16716   -0.26381   -2.45334    3.22829   -0.16175    0.75252
       3.27048   -0.12638    1.17565   -1.50338   -0.24608
 CYCLE:     6 TIME:   0.000 TIME LEFT:  2.00D  GRAD.:    53.599 HEAT: -63.94645

          HESSIAN HAS  0 NEGATIVE EIGENVALUE(S)
  MIN SEARCH, CORRECT HESSIAN, TRYING PURE NR STEP
 LAMBDA THAT MINIMIZES ALONG ALL MODES =        0.000000000
 PURE NR-STEP HAS LENGTH   0.06537
 LAMBDA THAT MINIMIZES ALONG ALL MODES =       -1.383198021
 P-RFO-STEP   HAS LENGTH   0.06506
 LAMBDA THAT MINIMIZES ALONG ALL MODES =     -941.994305426
 QA/TRIM-STEP HAS LENGTH   0.01669

  HEAT OF FORMATION       -64.283300745162705    
 PARAMETERS       -0.010   0.012  -0.005   2.897  -0.015   0.019   2.353   1.454
   0.004   2.296   1.725   6.284   1.413   0.589   3.137   1.195   0.984  -0.001

   1.208   0.998  -0.001   1.375   2.720   3.138   1.402   2.102   3.140   1.388

   2.062   6.281   1.391   2.037  -0.002   1.084   2.090   3.140   1.083   2.131

   3.138   1.078   2.127   3.139   1.079   2.097   3.139
 GRADIENT         -0.000  -0.000  -0.000  -7.113   0.000   0.000   2.423  -3.049
   0.000 -23.945  10.750  -0.620 -10.574   2.037   2.250  -3.144   4.919  -0.516

   3.193   5.862  -0.492  -4.243  20.853  -2.219  -9.704  13.458  -2.473 -14.316

   9.475  -1.552   2.166   1.353  -1.709  -1.875   1.710  -0.273  -2.830   3.724

  -0.150  -0.253   3.452  -0.123   0.194  -1.453  -0.250
       HoF         ACTUAL,  PREDICTED ENERGY CHANGE, RATIO
   -64.2833007    -0.3368492          -0.3268820    1.0304917
     STEPSIZE USED IS  0.01669
 CALCULATED STEP
    -0.002025  0.004405 -0.002504  0.003989 -0.000765  0.005709 -0.004671  0.002205
     0.001205  0.001985 -0.001461  0.000789  0.002854 -0.003382 -0.002215  0.000698
    -0.000166 -0.000578  0.000035  0.000506 -0.000615 -0.000835 -0.007124 -0.000956
     0.002519 -0.002795  0.000328 -0.001116  0.006925 -0.000505 -0.002279  0.000107
    -0.000422 -0.000506  0.000856 -0.000638  0.000224 -0.000426 -0.000762 -0.001657
    -0.000466 -0.000794 -0.001803  0.002823 -0.000659
     NEW TRUST RADIUS =  0.03338
*REMARK   3 AES = 4-(2-Aminoethyl)benzenesulfonyl fluoride res:    1
 PM7 CHARGE=-1 EF NOXYZ PRNT=2 PDBOUT COMPFG GRAPHF
 1H-indole-2,3-dione

  O(HETATM    1  O1  AES A   1)  -0.01046386 +1    0.0124959 +1   -0.0053065 +1
  O(HETATM    2  O2  AES A   1)   2.89665543 +1   -0.8862279 +1    1.0611993 +1     1     0     0
  N(HETATM    3  N   AES A   1)   2.35260570 +1   83.3187398 +1    0.2145202 +1     2     1     0
  C(HETATM    4  C1  AES A   1)   2.29638722 +1   98.8115315 +1    0.0735464 +1     3     2     1
  C(HETATM    5  C2  AES A   1)   1.41293643 +1   33.7313241 +1  179.7493485 +1     4     3     2
  C(HETATM    6  C3  AES A   1)   1.19514951 +1   56.4071870 +1   -0.0841904 +1     1     2     3
  C(HETATM    7  C4  AES A   1)   1.20756853 +1   57.1840066 +1   -0.0733157 +1     2     1     3
  C(HETATM    8  C5  AES A   1)   1.37540241 +1  155.8589554 +1  179.7912777 +1     4     3     2
  C(HETATM    9  C6  AES A   1)   1.40228290 +1  120.4273021 +1  179.9346128 +1     5     4     3
  C(HETATM   10  C7  AES A   1)   1.38825564 +1  118.1182282 +1   -0.1512115 +1     8     4     3
  C(HETATM   11  C8  AES A   1)   1.39055487 +1  116.7154443 +1   -0.1309323 +1     9     5     4
  H(HETATM   12  H8  AES A   1)   1.08444663 +1  119.7696835 +1  179.8837896 +1    11     9     5
  H(HETATM   13  H5  AES A   1)   1.08338976 +1  122.0768915 +1  179.8189876 +1     8     4     3
  H(HETATM   14  H6  AES A   1)   1.07820621 +1  121.8479341 +1  179.8667364 +1     9     5     4
  H(HETATM   15  H7  AES A   1)   1.07940177 +1  120.1268807 +1  179.8618085 +1    10     8     4

 XPARAM 
  1  1   -0.0105  1  2    0.0125  1  3   -0.0053  2  1    2.8967  2  2   -0.0155
  2  3    0.0185  3  1    2.3526  3  2    1.4542  3  3    0.0037  4  1    2.2964
  4  2    1.7246  4  3    6.2845  5  1    1.4129  5  2    0.5887  5  3    3.1372
  6  1    1.1951  6  2    0.9845  6  3   -0.0015  7  1    1.2076  7  2    0.9980
  7  3   -0.0013  8  1    1.3754  8  2    2.7203  8  3    3.1379  9  1    1.4023
  9  2    2.1019  9  3    3.1405 10  1    1.3883 10  2    2.0616 10  3    6.2805
 11  1    1.3906 11  2    2.0371 11  3   -0.0023 12  1    1.0844 12  2    2.0904
 12  3    3.1396 13  1    1.0834 13  2    2.1306 13  3    3.1384 14  1    1.0782
 14  2    2.1266 14  3    3.1393 15  1    1.0794 15  2    2.0966 15  3    3.1392
 grad
      -0.00000   -0.00001   -0.00000   -7.11266    0.00000    0.00000    2.42274   -3.04875
       0.00000  -23.94454   10.74969   -0.61983  -10.57421    2.03728    2.25039   -3.14408
       4.91911   -0.51587    3.19282    5.86231   -0.49218   -4.24319   20.85252   -2.21858
      -9.70381   13.45844   -2.47316  -14.31602    9.47534   -1.55173    2.16591    1.35268
      -1.70893   -1.87451    1.70999   -0.27250   -2.82983    3.72363   -0.15043   -0.25289
       3.45226   -0.12346    0.19446   -1.45339   -0.24985
 CYCLE:     7 TIME:   0.008 TIME LEFT:  2.00D  GRAD.:    45.206 HEAT: -64.28330

          HESSIAN HAS  0 NEGATIVE EIGENVALUE(S)
  MIN SEARCH, CORRECT HESSIAN, TRYING PURE NR STEP
 LAMBDA THAT MINIMIZES ALONG ALL MODES =        0.000000000
 PURE NR-STEP HAS LENGTH   0.13966
 LAMBDA THAT MINIMIZES ALONG ALL MODES =       -2.590485097
 P-RFO-STEP   HAS LENGTH   0.13698
 LAMBDA THAT MINIMIZES ALONG ALL MODES =     -429.778620259
 QA/TRIM-STEP HAS LENGTH   0.03338

  HEAT OF FORMATION       -64.878901187781594    
 PARAMETERS       -0.016   0.026  -0.016   2.906  -0.016   0.037   2.342   1.459
   0.009   2.309   1.720   6.289   1.419   0.585   3.131   1.201   0.979  -0.003

   1.202   0.990  -0.003   1.372   2.699   3.134   1.408   2.100   3.141   1.382

   2.077   6.278   1.385   2.047  -0.004   1.084   2.091   3.138   1.084   2.127

   3.136   1.074   2.123   3.137   1.074   2.106   3.137
 GRADIENT         -0.000  -0.000  -0.000  -8.426   0.000   0.000  -2.924 -11.153
   0.000 -15.381  -1.824  -0.097 -19.571  33.652   2.375  11.958   5.934  -0.161

  -6.612  -1.124  -0.791 -17.804  -6.879  -2.643  -5.299  -6.305  -2.745 -19.553

  -3.791  -1.854   2.055  -2.743  -2.000  -2.570   1.036  -0.453  -3.576   4.413

  -0.176  -3.710   4.512  -0.209  -4.091   0.591  -0.390
       HoF         ACTUAL,  PREDICTED ENERGY CHANGE, RATIO
   -64.8789012    -0.5956004          -0.5643839    1.0553107
     STEPSIZE USED IS  0.03338
 CALCULATED STEP
    -0.005943  0.013356 -0.010800  0.009787 -0.000051  0.018830 -0.010423  0.004371
     0.004916  0.012653 -0.004160  0.004980  0.006441 -0.003675 -0.005892  0.005833
    -0.005828 -0.001611 -0.005924 -0.008047 -0.001619 -0.003546 -0.021556 -0.003848
     0.005842 -0.002148  0.000188 -0.005934  0.015034 -0.002477 -0.005762  0.009437
    -0.001742 -0.000822  0.000964 -0.001936  0.001097 -0.004021 -0.002388 -0.004682
    -0.003304 -0.002475 -0.005203  0.009357 -0.002028
     NEW TRUST RADIUS =  0.06676
*REMARK   3 AES = 4-(2-Aminoethyl)benzenesulfonyl fluoride res:    1
 PM7 CHARGE=-1 EF NOXYZ PRNT=2 PDBOUT COMPFG GRAPHF
 1H-indole-2,3-dione

  O(HETATM    1  O1  AES A   1)  -0.01640648 +1    0.0258514 +1   -0.0161067 +1
  O(HETATM    2  O2  AES A   1)   2.90644204 +1   -0.8891274 +1    2.1400961 +1     1     0     0
  N(HETATM    3  N   AES A   1)   2.34218245 +1   83.5691761 +1    0.4962148 +1     2     1     0
  C(HETATM    4  C1  AES A   1)   2.30904062 +1   98.5731684 +1    0.3588875 +1     3     2     1
  C(HETATM    5  C2  AES A   1)   1.41937707 +1   33.5207749 +1  179.4117602 +1     4     3     2
  C(HETATM    6  C3  AES A   1)   1.20098215 +1   56.0732638 +1   -0.1765154 +1     1     2     3
  C(HETATM    7  C4  AES A   1)   1.20164496 +1   56.7229210 +1   -0.1660504 +1     2     1     3
  C(HETATM    8  C5  AES A   1)   1.37185683 +1  154.6238735 +1  179.5708073 +1     4     3     2
  C(HETATM    9  C6  AES A   1)   1.40812467 +1  120.3042060 +1  179.9454068 +1     5     4     3
  C(HETATM   10  C7  AES A   1)   1.38232118 +1  118.9796332 +1   -0.2931553 +1     8     4     3
  C(HETATM   11  C8  AES A   1)   1.38479297 +1  117.2561500 +1   -0.2307185 +1     9     5     4
  H(HETATM   12  H8  AES A   1)   1.08362477 +1  119.8249069 +1  179.7728907 +1    11     9     5
  H(HETATM   13  H5  AES A   1)   1.08448675 +1  121.8464777 +1  179.6821433 +1     8     4     3
  H(HETATM   14  H6  AES A   1)   1.07352454 +1  121.6586377 +1  179.7249427 +1     9     5     4
  H(HETATM   15  H7  AES A   1)   1.07419927 +1  120.6630033 +1  179.7456275 +1    10     8     4

 XPARAM 
  1  1   -0.0164  1  2    0.0259  1  3   -0.0161  2  1    2.9064  2  2   -0.0155
  2  3    0.0374  3  1    2.3422  3  2    1.4586  3  3    0.0087  4  1    2.3090
  4  2    1.7204  4  3    6.2894  5  1    1.4194  5  2    0.5850  5  3    3.1313
  6  1    1.2010  6  2    0.9787  6  3   -0.0031  7  1    1.2016  7  2    0.9900
  7  3   -0.0029  8  1    1.3719  8  2    2.6987  8  3    3.1341  9  1    1.4081
  9  2    2.0997  9  3    3.1406 10  1    1.3823 10  2    2.0766 10  3    6.2781
 11  1    1.3848 11  2    2.0465 11  3   -0.0040 12  1    1.0836 12  2    2.0913
 12  3    3.1376 13  1    1.0845 13  2    2.1266 13  3    3.1360 14  1    1.0735
 14  2    2.1233 14  3    3.1368 15  1    1.0742 15  2    2.1060 15  3    3.1372
 grad
      -0.00000   -0.00001   -0.00000   -8.42644    0.00000    0.00000   -2.92365  -11.15290
       0.00000  -15.38053   -1.82430   -0.09721  -19.57070   33.65196    2.37544   11.95777
       5.93366   -0.16117   -6.61186   -1.12384   -0.79082  -17.80351   -6.87925   -2.64306
      -5.29932   -6.30520   -2.74460  -19.55328   -3.79059   -1.85398    2.05489   -2.74312
      -1.99994   -2.57023    1.03570   -0.45334   -3.57558    4.41302   -0.17619   -3.71008
       4.51226   -0.20888   -4.09143    0.59050   -0.39030
 CYCLE:     8 TIME:   0.008 TIME LEFT:  2.00D  GRAD.:    56.061 HEAT: -64.87890

          HESSIAN HAS  0 NEGATIVE EIGENVALUE(S)
  MIN SEARCH, CORRECT HESSIAN, TRYING PURE NR STEP
 LAMBDA THAT MINIMIZES ALONG ALL MODES =        0.000000000
 PURE NR-STEP HAS LENGTH   0.10184
 LAMBDA THAT MINIMIZES ALONG ALL MODES =       -1.462184208
 P-RFO-STEP   HAS LENGTH   0.10060
 LAMBDA THAT MINIMIZES ALONG ALL MODES =      -62.644894849
 QA/TRIM-STEP HAS LENGTH   0.06676

  HEAT OF FORMATION       -65.427157642399834    
 PARAMETERS       -0.025   0.042  -0.036   2.922  -0.011   0.069   2.331   1.462
   0.016   2.322   1.721   6.297   1.428   0.571   3.120   1.194   0.972  -0.007

   1.198   0.990  -0.004   1.374   2.675   3.129   1.409   2.093   3.142   1.381

   2.097   6.275   1.379   2.052  -0.006   1.083   2.094   3.135   1.087   2.117

   3.132   1.071   2.115   3.133   1.070   2.117   3.134
 GRADIENT         -0.000  -0.000  -0.000  -4.424   0.000   0.000  -6.784   0.534
   0.000 -19.607  10.470   0.314  -8.416  -0.230   0.598 -10.052   1.936   0.082

  -4.419   9.640  -0.839  -7.441  -0.035  -1.083 -10.890  -2.289  -1.190 -17.013

   8.520  -0.751  -7.966  -5.458  -1.026  -4.040   1.970  -0.447  -3.218   4.823

  -0.094  -6.116   3.956  -0.206  -4.954   0.400  -0.364
       HoF         ACTUAL,  PREDICTED ENERGY CHANGE, RATIO
   -65.4271576    -0.5482565          -0.6654875    0.8238419
     STEPSIZE USED IS  0.06676
 CALCULATED STEP
    -0.008809  0.015760 -0.019543  0.015343  0.004476  0.031992 -0.011354  0.003421
     0.007796  0.012541  0.000095  0.007317  0.008701 -0.014278 -0.011715 -0.007427
    -0.006475 -0.003933 -0.003332  0.000358 -0.001387  0.001955 -0.023933 -0.005206
     0.000667 -0.007022  0.001737 -0.000895  0.020101 -0.003562 -0.005907  0.005300
    -0.001996 -0.000983  0.002480 -0.002685  0.002088 -0.009385 -0.004133 -0.002852
    -0.008589 -0.004072 -0.003716  0.011369 -0.003061
     NEW TRUST RADIUS =  0.09442
*REMARK   3 AES = 4-(2-Aminoethyl)benzenesulfonyl fluoride res:    1
 PM7 CHARGE=-1 EF NOXYZ PRNT=2 PDBOUT COMPFG GRAPHF
 1H-indole-2,3-dione

  O(HETATM    1  O1  AES A   1)  -0.02521521 +1    0.0416118 +1   -0.0356496 +1
  O(HETATM    2  O2  AES A   1)   2.92178484 +1   -0.6326934 +1    3.9730812 +1     1     0     0
  N(HETATM    3  N   AES A   1)   2.33082830 +1   83.7651852 +1    0.9428696 +1     2     1     0
  C(HETATM    4  C1  AES A   1)   2.32158208 +1   98.5786295 +1    0.7781240 +1     3     2     1
  C(HETATM    5  C2  AES A   1)   1.42807781 +1   32.7026880 +1  178.7405384 +1     4     3     2
  C(HETATM    6  C3  AES A   1)   1.19355471 +1   55.7022530 +1   -0.4018311 +1     1     2     3
  C(HETATM    7  C4  AES A   1)   1.19831273 +1   56.7434302 +1   -0.2455132 +1     2     1     3
  C(HETATM    8  C5  AES A   1)   1.37381140 +1  153.2526245 +1  179.2725180 +1     4     3     2
  C(HETATM    9  C6  AES A   1)   1.40879179 +1  119.9018769 +1 -179.9550893 +1     5     4     3
  C(HETATM   10  C7  AES A   1)   1.38142610 +1  120.1313096 +1   -0.4972276 +1     8     4     3
  C(HETATM   11  C8  AES A   1)   1.37888617 +1  117.5598095 +1   -0.3450926 +1     9     5     4
  H(HETATM   12  H8  AES A   1)   1.08264210 +1  119.9670064 +1  179.6190246 +1    11     9     5
  H(HETATM   13  H5  AES A   1)   1.08657498 +1  121.3087805 +1  179.4453508 +1     8     4     3
  H(HETATM   14  H6  AES A   1)   1.07067278 +1  121.1665346 +1  179.4916287 +1     9     5     4
  H(HETATM   15  H7  AES A   1)   1.07048281 +1  121.3143738 +1  179.5702643 +1    10     8     4

 XPARAM 
  1  1   -0.0252  1  2    0.0416  1  3   -0.0356  2  1    2.9218  2  2   -0.0110
  2  3    0.0693  3  1    2.3308  3  2    1.4620  3  3    0.0165  4  1    2.3216
  4  2    1.7205  4  3    6.2968  5  1    1.4281  5  2    0.5708  5  3    3.1196
  6  1    1.1936  6  2    0.9722  6  3   -0.0070  7  1    1.1983  7  2    0.9904
  7  3   -0.0043  8  1    1.3738  8  2    2.6748  8  3    3.1289  9  1    1.4088
  9  2    2.0927  9  3    3.1424 10  1    1.3814 10  2    2.0967 10  3    6.2745
 11  1    1.3789 11  2    2.0518 11  3   -0.0060 12  1    1.0826 12  2    2.0938
 12  3    3.1349 13  1    1.0866 13  2    2.1172 13  3    3.1319 14  1    1.0707
 14  2    2.1148 14  3    3.1327 15  1    1.0705 15  2    2.1173 15  3    3.1341
 grad
      -0.00000   -0.00001   -0.00000   -4.42357    0.00000    0.00000   -6.78436    0.53387
       0.00000  -19.60666   10.46971    0.31370   -8.41581   -0.23041    0.59810  -10.05179
       1.93568    0.08157   -4.41899    9.63975   -0.83891   -7.44066   -0.03507   -1.08293
     -10.88959   -2.28883   -1.19021  -17.01349    8.51964   -0.75139   -7.96606   -5.45798
      -1.02648   -4.04028    1.97043   -0.44705   -3.21845    4.82309   -0.09436   -6.11589
       3.95649   -0.20630   -4.95352    0.39960   -0.36414
 CYCLE:     9 TIME:   0.000 TIME LEFT:  2.00D  GRAD.:    40.247 HEAT: -65.42716

          HESSIAN HAS  0 NEGATIVE EIGENVALUE(S)
  MIN SEARCH, CORRECT HESSIAN, TRYING PURE NR STEP
 LAMBDA THAT MINIMIZES ALONG ALL MODES =        0.000000000
 PURE NR-STEP HAS LENGTH   0.05264

  HEAT OF FORMATION       -65.670259589103807    
 PARAMETERS       -0.036   0.050  -0.051   2.929  -0.005   0.101   2.322   1.468
   0.023   2.332   1.715   6.298   1.431   0.568   3.110   1.194   0.967  -0.013

   1.200   0.978  -0.003   1.372   2.666   3.124   1.407   2.093   3.144   1.386

   2.105   6.271   1.377   2.059  -0.008   1.083   2.094   3.133   1.088   2.105

   3.128   1.072   2.104   3.129   1.071   2.124   3.132
 GRADIENT         -0.000  -0.000  -0.000  -5.511   0.000   0.000  -9.119   7.929
   0.000 -14.158  -0.928  -1.789 -10.293  -2.477  -0.854  -8.385   1.651  -1.593

   1.713  -3.673  -1.070  -9.648   3.914  -0.889 -12.113   4.116  -0.229 -10.341

  11.503  -0.573 -11.032  -1.634  -0.550  -3.859   1.578  -0.458  -2.765   3.183

  -0.147  -5.772   3.037  -0.249  -4.094   1.280  -0.403
       HoF         ACTUAL,  PREDICTED ENERGY CHANGE, RATIO
   -65.6702596    -0.2431019          -0.2390672    1.0168770
     STEPSIZE USED IS  0.05264
 CALCULATED STEP
    -0.010646  0.008281 -0.015564  0.007112  0.006419  0.031901 -0.009141  0.005606
     0.006106  0.009990 -0.005171  0.001082  0.002510 -0.002433 -0.009303  0.000427
    -0.004846 -0.005668  0.001551 -0.012778  0.000859 -0.002116 -0.009185 -0.005383
    -0.001650 -0.000148  0.001635  0.004526  0.008577 -0.003661 -0.002138  0.007287
    -0.001654  0.000104  0.000644 -0.001555  0.001230 -0.012101 -0.004195  0.001546
    -0.010424 -0.003582  0.000062  0.006959 -0.002251
     NEW TRUST RADIUS =  0.13353
*REMARK   3 AES = 4-(2-Aminoethyl)benzenesulfonyl fluoride res:    1
 PM7 CHARGE=-1 EF NOXYZ PRNT=2 PDBOUT COMPFG GRAPHF
 1H-indole-2,3-dione

  O(HETATM    1  O1  AES A   1)  -0.03586170 +1    0.0498924 +1   -0.0512139 +1
  O(HETATM    2  O2  AES A   1)   2.92889688 +1   -0.2648902 +1    5.8008474 +1     1     0     0
  N(HETATM    3  N   AES A   1)   2.32168706 +1   84.0863743 +1    1.2927235 +1     2     1     0
  C(HETATM    4  C1  AES A   1)   2.33157196 +1   98.2823544 +1    0.8401246 +1     3     2     1
  C(HETATM    5  C2  AES A   1)   1.43058789 +1   32.5632750 +1  178.2075110 +1     4     3     2
  C(HETATM    6  C3  AES A   1)   1.19398152 +1   55.4246238 +1   -0.7265553 +1     1     2     3
  C(HETATM    7  C4  AES A   1)   1.19986328 +1   56.0113175 +1   -0.1963000 +1     2     1     3
  C(HETATM    8  C5  AES A   1)   1.37169537 +1  152.7263477 +1  178.9640989 +1     4     3     2
  C(HETATM    9  C6  AES A   1)   1.40714133 +1  119.8934205 +1 -179.8614127 +1     5     4     3
  C(HETATM   10  C7  AES A   1)   1.38595165 +1  120.6227104 +1   -0.7070114 +1     8     4     3
  C(HETATM   11  C8  AES A   1)   1.37674840 +1  117.9773219 +1   -0.4398652 +1     9     5     4
  H(HETATM   12  H8  AES A   1)   1.08274580 +1  120.0038969 +1  179.5299398 +1    11     9     5
  H(HETATM   13  H5  AES A   1)   1.08780481 +1  120.6154344 +1  179.2050062 +1     8     4     3
  H(HETATM   14  H6  AES A   1)   1.07221907 +1  120.5692605 +1  179.2863858 +1     9     5     4
  H(HETATM   15  H7  AES A   1)   1.07054476 +1  121.7130914 +1  179.4412785 +1    10     8     4

 XPARAM 
  1  1   -0.0359  1  2    0.0499  1  3   -0.0512  2  1    2.9289  2  2   -0.0046
  2  3    0.1012  3  1    2.3217  3  2    1.4676  3  3    0.0226  4  1    2.3316
  4  2    1.7154  4  3    6.2978  5  1    1.4306  5  2    0.5683  5  3    3.1103
  6  1    1.1940  6  2    0.9673  6  3   -0.0127  7  1    1.1999  7  2    0.9776
  7  3   -0.0034  8  1    1.3717  8  2    2.6656  8  3    3.1235  9  1    1.4071
  9  2    2.0925  9  3    3.1440 10  1    1.3860 10  2    2.1053 10  3    6.2708
 11  1    1.3767 11  2    2.0591 11  3   -0.0077 12  1    1.0827 12  2    2.0945
 12  3    3.1334 13  1    1.0878 13  2    2.1051 13  3    3.1277 14  1    1.0722
 14  2    2.1043 14  3    3.1291 15  1    1.0705 15  2    2.1243 15  3    3.1318
 grad
      -0.00000   -0.00001   -0.00000   -5.51088    0.00000    0.00000   -9.11942    7.92862
       0.00000  -14.15808   -0.92826   -1.78858  -10.29269   -2.47713   -0.85351   -8.38536
       1.65071   -1.59287    1.71328   -3.67251   -1.07022   -9.64829    3.91398   -0.88933
     -12.11272    4.11637   -0.22851  -10.34098   11.50278   -0.57308  -11.03176   -1.63421
      -0.55007   -3.85851    1.57838   -0.45779   -2.76465    3.18307   -0.14654   -5.77168
       3.03715   -0.24921   -4.09372    1.27976   -0.40263
 CYCLE:    10 TIME:   0.008 TIME LEFT:  2.00D  GRAD.:    36.340 HEAT: -65.67026

          HESSIAN HAS  0 NEGATIVE EIGENVALUE(S)
  MIN SEARCH, CORRECT HESSIAN, TRYING PURE NR STEP
 LAMBDA THAT MINIMIZES ALONG ALL MODES =        0.000000000
 PURE NR-STEP HAS LENGTH   0.06204

  HEAT OF FORMATION       -65.828568254626589    
 PARAMETERS       -0.053   0.056  -0.073   2.936   0.006   0.139   2.313   1.463
   0.027   2.342   1.722   6.305   1.437   0.565   3.102   1.196   0.961  -0.014

   1.195   0.976  -0.001   1.370   2.657   3.116   1.409   2.091   3.142   1.389

   2.103   6.265   1.377   2.070  -0.012   1.084   2.093   3.132   1.089   2.088

   3.122   1.077   2.089   3.125   1.072   2.129   3.130
 GRADIENT         -0.000  -0.000  -0.000 -10.931   0.000   0.000 -12.586  -4.563
   0.000  -5.459   9.591  -0.188  -4.948  -0.160   3.060  -2.091  -5.804   0.051

  -6.521   2.892   0.005 -14.845  -0.635  -4.969  -3.637   9.085  -4.415  -8.868

   3.057  -3.417  -6.462   7.197  -3.463  -2.304   0.140  -0.901  -1.889  -0.066

  -0.381  -3.509   1.796  -0.552  -3.883   3.561  -0.851
       HoF         ACTUAL,  PREDICTED ENERGY CHANGE, RATIO
   -65.8285683    -0.1583087          -0.2426854    0.6523206
     STEPSIZE USED IS  0.06204
 CALCULATED STEP
    -0.016847  0.006009 -0.021551  0.007136  0.010728  0.037829 -0.008541 -0.004085
     0.004584  0.010683  0.006839  0.007388  0.006910 -0.003628 -0.008106  0.001944
    -0.006743 -0.001683 -0.004540 -0.001726  0.002070 -0.001907 -0.008491 -0.007247
     0.001629 -0.001647 -0.002035  0.002999 -0.002301 -0.005923  0.000514  0.010881
    -0.004254  0.001003 -0.001171 -0.001328  0.001062 -0.016688 -0.005531  0.004283
    -0.015064 -0.004435  0.001242  0.004994 -0.002335
     NEW TRUST RADIUS =  0.13353
*REMARK   3 AES = 4-(2-Aminoethyl)benzenesulfonyl fluoride res:    1
 PM7 CHARGE=-1 EF NOXYZ PRNT=2 PDBOUT COMPFG GRAPHF
 1H-indole-2,3-dione

  O(HETATM    1  O1  AES A   1)  -0.05270872 +1    0.0559016 +1   -0.0727646 +1
  O(HETATM    2  O2  AES A   1)   2.93603278 +1    0.3497989 +1    7.9682788 +1     1     0     0
  N(HETATM    3  N   AES A   1)   2.31314647 +1   83.8523112 +1    1.5553854 +1     2     1     0
  C(HETATM    4  C1  AES A   1)   2.34225497 +1   98.6742245 +1    1.2634466 +1     3     2     1
  C(HETATM    5  C2  AES A   1)   1.43749783 +1   32.3554074 +1  177.7430693 +1     4     3     2
  C(HETATM    6  C3  AES A   1)   1.19592582 +1   55.0382911 +1   -0.8229755 +1     1     2     3
  C(HETATM    7  C4  AES A   1)   1.19532350 +1   55.9124064 +1   -0.0777202 +1     2     1     3
  C(HETATM    8  C5  AES A   1)   1.36978844 +1  152.2398411 +1  178.5488599 +1     4     3     2
  C(HETATM    9  C6  AES A   1)   1.40877029 +1  119.7990717 +1 -179.9780113 +1     5     4     3
  C(HETATM   10  C7  AES A   1)   1.38895071 +1  120.4908673 +1   -1.0463625 +1     8     4     3
  C(HETATM   11  C8  AES A   1)   1.37726191 +1  118.6007447 +1   -0.6836011 +1     9     5     4
  H(HETATM   12  H8  AES A   1)   1.08374878 +1  119.9368288 +1  179.4538630 +1    11     9     5
  H(HETATM   13  H5  AES A   1)   1.08886727 +1  119.6593010 +1  178.8880903 +1     8     4     3
  H(HETATM   14  H6  AES A   1)   1.07650188 +1  119.7061669 +1  179.0322865 +1     9     5     4
  H(HETATM   15  H7  AES A   1)   1.07178725 +1  121.9992161 +1  179.3075158 +1    10     8     4

 XPARAM 
  1  1   -0.0527  1  2    0.0559  1  3   -0.0728  2  1    2.9360  2  2    0.0061
  2  3    0.1391  3  1    2.3131  3  2    1.4635  3  3    0.0271  4  1    2.3423
  4  2    1.7222  4  3    6.3052  5  1    1.4375  5  2    0.5647  5  3    3.1022
  6  1    1.1959  6  2    0.9606  6  3   -0.0144  7  1    1.1953  7  2    0.9759
  7  3   -0.0014  8  1    1.3698  8  2    2.6571  8  3    3.1163  9  1    1.4088
  9  2    2.0909  9  3    3.1420 10  1    1.3890 10  2    2.1030 10  3    6.2649
 11  1    1.3773 11  2    2.0700 11  3   -0.0119 12  1    1.0837 12  2    2.0933
 12  3    3.1321 13  1    1.0889 13  2    2.0884 13  3    3.1222 14  1    1.0765
 14  2    2.0893 14  3    3.1247 15  1    1.0718 15  2    2.1293 15  3    3.1295
 grad
      -0.00000   -0.00001   -0.00000  -10.93101    0.00000    0.00000  -12.58553   -4.56291
       0.00000   -5.45889    9.59059   -0.18828   -4.94808   -0.15964    3.06001   -2.09083
      -5.80357    0.05117   -6.52105    2.89181    0.00460  -14.84459   -0.63509   -4.96891
      -3.63693    9.08547   -4.41529   -8.86827    3.05657   -3.41652   -6.46191    7.19688
      -3.46271   -2.30445    0.14017   -0.90113   -1.88853   -0.06609   -0.38086   -3.50918
       1.79620   -0.55177   -3.88340    3.56127   -0.85100
 CYCLE:    11 TIME:   0.008 TIME LEFT:  2.00D  GRAD.:    34.109 HEAT: -65.82857

          HESSIAN HAS  0 NEGATIVE EIGENVALUE(S)
  MIN SEARCH, CORRECT HESSIAN, TRYING PURE NR STEP
 LAMBDA THAT MINIMIZES ALONG ALL MODES =        0.000000000
 PURE NR-STEP HAS LENGTH   0.03687

  HEAT OF FORMATION       -65.871084744023392    
 PARAMETERS       -0.066   0.052  -0.082   2.941   0.013   0.158   2.315   1.461
   0.023   2.344   1.723   6.305   1.441   0.568   3.088   1.195   0.966  -0.016

   1.191   0.972  -0.003   1.374   2.664   3.120   1.408   2.086   3.148   1.389

   2.103   6.266   1.378   2.067  -0.010   1.085   2.092   3.133   1.089   2.082

   3.119   1.080   2.081   3.122   1.074   2.126   3.129
 GRADIENT         -0.000  -0.000  -0.000  -6.296   0.000   0.000  -6.356  -3.347
   0.000  -0.224   6.445  -1.512  -1.496  10.700  -9.722  -4.976   1.940  -0.976

 -23.479  -1.198  -0.477  -5.930   4.778   6.776  -5.850   6.982   7.935  -5.652

   8.255   4.816  -6.405   2.008   4.648  -2.210   1.037   0.102  -1.673  -0.730

   0.133  -0.780   0.060  -0.050  -1.803   2.314   0.171
       HoF         ACTUAL,  PREDICTED ENERGY CHANGE, RATIO
   -65.8710847    -0.0425165          -0.1933855    0.2198536
     STEPSIZE USED IS  0.03687
 CALCULATED STEP
    -0.012823 -0.003927 -0.009352  0.005237  0.007252  0.019121  0.001897 -0.002207
    -0.003923  0.002198  0.000628  0.000234  0.003220  0.003223 -0.014181 -0.001371
     0.004920 -0.002041 -0.004620 -0.004193 -0.001719  0.003938  0.007228  0.003617
    -0.000431 -0.004768  0.005656  0.000492  0.000187  0.001023  0.001132 -0.003027
     0.001962  0.001002 -0.000794  0.000535 -0.000049 -0.006604 -0.003529  0.003971
    -0.008611 -0.002312  0.002491 -0.003500 -0.000186
     NEW TRUST RADIUS =  0.13353
*REMARK   3 AES = 4-(2-Aminoethyl)benzenesulfonyl fluoride res:    1
 PM7 CHARGE=-1 EF NOXYZ PRNT=2 PDBOUT COMPFG GRAPHF
 1H-indole-2,3-dione

  O(HETATM    1  O1  AES A   1)  -0.06553133 +1    0.0519741 +1   -0.0821169 +1
  O(HETATM    2  O2  AES A   1)   2.94126932 +1    0.7652952 +1    9.0638409 +1     1     0     0
  N(HETATM    3  N   AES A   1)   2.31504371 +1   83.7258579 +1    1.3306090 +1     2     1     0
  C(HETATM    4  C1  AES A   1)   2.34445312 +1   98.7102028 +1    1.2768585 +1     3     2     1
  C(HETATM    5  C2  AES A   1)   1.44071800 +1   32.5400546 +1  176.9305753 +1     4     3     2
  C(HETATM    6  C3  AES A   1)   1.19455490 +1   55.3201616 +1   -0.9398907 +1     1     2     3
  C(HETATM    7  C4  AES A   1)   1.19070333 +1   55.6721405 +1   -0.1762058 +1     2     1     3
  C(HETATM    8  C5  AES A   1)   1.37372675 +1  152.6539893 +1  178.7561074 +1     4     3     2
  C(HETATM    9  C6  AES A   1)   1.40833934 +1  119.5259107 +1 -179.6539279 +1     5     4     3
  C(HETATM   10  C7  AES A   1)   1.38944289 +1  120.5015981 +1   -0.9877413 +1     8     4     3
  C(HETATM   11  C8  AES A   1)   1.37839365 +1  118.4273217 +1   -0.5711731 +1     9     5     4
  H(HETATM   12  H8  AES A   1)   1.08475105 +1  119.8913318 +1  179.4845097 +1    11     9     5
  H(HETATM   13  H5  AES A   1)   1.08881817 +1  119.2809126 +1  178.6859007 +1     8     4     3
  H(HETATM   14  H6  AES A   1)   1.08047276 +1  119.2128145 +1  178.8998120 +1     9     5     4
  H(HETATM   15  H7  AES A   1)   1.07427873 +1  121.7986714 +1  179.2968516 +1    10     8     4

 XPARAM 
  1  1   -0.0655  1  2    0.0520  1  3   -0.0821  2  1    2.9413  2  2    0.0134
  2  3    0.1582  3  1    2.3150  3  2    1.4613  3  3    0.0232  4  1    2.3445
  4  2    1.7228  4  3    6.3055  5  1    1.4407  5  2    0.5679  5  3    3.0880
  6  1    1.1946  6  2    0.9655  6  3   -0.0164  7  1    1.1907  7  2    0.9717
  7  3   -0.0031  8  1    1.3737  8  2    2.6643  8  3    3.1199  9  1    1.4083
  9  2    2.0861  9  3    3.1476 10  1    1.3894 10  2    2.1031 10  3    6.2659
 11  1    1.3784 11  2    2.0669 11  3   -0.0100 12  1    1.0848 12  2    2.0925
 12  3    3.1326 13  1    1.0888 13  2    2.0818 13  3    3.1187 14  1    1.0805
 14  2    2.0807 14  3    3.1224 15  1    1.0743 15  2    2.1258 15  3    3.1293
 grad
      -0.00000   -0.00001   -0.00000   -6.29575    0.00000    0.00000   -6.35647   -3.34736
       0.00000   -0.22420    6.44482   -1.51220   -1.49621   10.70027   -9.72150   -4.97610
       1.94004   -0.97646  -23.47856   -1.19814   -0.47723   -5.92983    4.77840    6.77644
      -5.85005    6.98190    7.93458   -5.65243    8.25462    4.81606   -6.40499    2.00816
       4.64846   -2.21044    1.03727    0.10196   -1.67303   -0.73030    0.13317   -0.77958
       0.05972   -0.04963   -1.80341    2.31355    0.17055
 CYCLE:    12 TIME:   0.000 TIME LEFT:  2.00D  GRAD.:    37.244 HEAT: -65.87108

          HESSIAN HAS  0 NEGATIVE EIGENVALUE(S)
  MIN SEARCH, CORRECT HESSIAN, TRYING PURE NR STEP
 LAMBDA THAT MINIMIZES ALONG ALL MODES =        0.000000000
 PURE NR-STEP HAS LENGTH   0.04165

  HEAT OF FORMATION       -65.726668882060039    
 PARAMETERS       -0.080   0.046  -0.079   2.944   0.024   0.170   2.321   1.465
   0.017   2.342   1.717   6.308   1.441   0.568   3.103   1.193   0.975  -0.012

   1.194   0.969  -0.001   1.379   2.676   3.111   1.408   2.078   3.136   1.389

   2.098   6.258   1.379   2.062  -0.016   1.086   2.091   3.134   1.088   2.081

   3.117   1.084   2.076   3.122   1.077   2.118   3.130
 GRADIENT         -0.000  -0.000  -0.000   3.013   0.000   0.000  -0.238  14.124
   0.000  -5.097  -1.572   1.492  -0.869  10.865  13.765 -13.660  13.009   1.279

 -19.629  -7.622   0.581   3.685  11.188 -14.983 -11.820   1.492 -15.116  -1.658

  13.208 -10.338  -6.291  -6.722 -10.356  -2.211   2.291  -1.653  -1.406  -0.749

  -0.953   1.593  -1.177  -1.127   0.533   0.129  -1.480
       HoF         ACTUAL,  PREDICTED ENERGY CHANGE, RATIO
   -65.7266689     0.1444159          -0.3214195   -0.4493064
 UNACCEPTABLE RATIO, REJECTING STEP, REDUCING DMAX TO 0.0208
  MIN SEARCH, CORRECT HESSIAN, TRYING PURE NR STEP
 LAMBDA THAT MINIMIZES ALONG ALL MODES =        0.000000000
 PURE NR-STEP HAS LENGTH   0.04165
 LAMBDA THAT MINIMIZES ALONG ALL MODES =       -0.641730172
 P-RFO-STEP   HAS LENGTH   0.04149
 LAMBDA THAT MINIMIZES ALONG ALL MODES =     -256.310976015
 QA/TRIM-STEP HAS LENGTH   0.02082

  HEAT OF FORMATION       -66.036081261125219    
 PARAMETERS       -0.073   0.050  -0.079   2.942   0.018   0.160   2.318   1.464
   0.022   2.343   1.720   6.307   1.440   0.567   3.098   1.194   0.969  -0.014

   1.195   0.971  -0.002   1.376   2.669   3.114   1.408   2.082   3.141   1.389

   2.101   6.262   1.378   2.065  -0.014   1.085   2.092   3.133   1.089   2.083

   3.118   1.081   2.080   3.123   1.075   2.122   3.130
 GRADIENT         -0.000  -0.000  -0.000  -2.269   0.000   0.000  -4.436   8.214
   0.000  -4.358   4.367   0.076  -3.263   9.291   4.139  -9.889   5.437   0.205

 -13.357  -3.496   0.195  -2.176   4.688  -6.189  -9.958   1.463  -5.679  -3.337

   9.364  -4.195  -6.622  -3.621  -4.240  -2.341   1.723  -0.952  -1.593  -0.488

  -0.499  -0.134  -0.257  -0.663  -0.910   1.354  -0.864
       HoF         ACTUAL,  PREDICTED ENERGY CHANGE, RATIO
   -66.0360813    -0.1649965          -0.2722917    0.6059551
     STEPSIZE USED IS  0.02082
 CALCULATED STEP
    -0.007095 -0.002175  0.003334  0.000997  0.004653  0.002199  0.002800  0.002965
    -0.001467 -0.001437 -0.002974  0.001289 -0.000962 -0.001247  0.009757 -0.000767
     0.003745  0.002350  0.004435 -0.000984  0.001336  0.002445  0.004305 -0.005573
     0.000039 -0.003685 -0.006650 -0.000149 -0.001915 -0.003970 -0.000261 -0.002335
    -0.003573  0.000663 -0.000358  0.000546 -0.000250  0.001181 -0.000294  0.000817
    -0.000663  0.000194  0.001087 -0.003517  0.000350
     NEW TRUST RADIUS =  0.02945
*REMARK   3 AES = 4-(2-Aminoethyl)benzenesulfonyl fluoride res:    1
 PM7 CHARGE=-1 EF NOXYZ PRNT=2 PDBOUT COMPFG GRAPHF
 1H-indole-2,3-dione

  O(HETATM    1  O1  AES A   1)  -0.07262594 +1    0.0497989 +1   -0.0787825 +1
  O(HETATM    2  O2  AES A   1)   2.94226594 +1    1.0319135 +1    9.1898297 +1     1     0     0
  N(HETATM    3  N   AES A   1)   2.31784399 +1   83.8957509 +1    1.2465502 +1     2     1     0
  C(HETATM    4  C1  AES A   1)   2.34301602 +1   98.5398157 +1    1.3507182 +1     3     2     1
  C(HETATM    5  C2  AES A   1)   1.43975637 +1   32.4685808 +1  177.4896094 +1     4     3     2
  C(HETATM    6  C3  AES A   1)   1.19378751 +1   55.5347150 +1   -0.8052245 +1     1     2     3
  C(HETATM    7  C4  AES A   1)   1.19513835 +1   55.6157531 +1   -0.0996757 +1     2     1     3
  C(HETATM    8  C5  AES A   1)   1.37617152 +1  152.9006528 +1  178.4368152 +1     4     3     2
  C(HETATM    9  C6  AES A   1)   1.40837882 +1  119.3147896 +1  179.9650825 +1     5     4     3
  C(HETATM   10  C7  AES A   1)   1.38929356 +1  120.3918981 +1   -1.2152013 +1     8     4     3
  C(HETATM   11  C8  AES A   1)   1.37813302 +1  118.2935607 +1   -0.7758642 +1     9     5     4
  H(HETATM   12  H8  AES A   1)   1.08541374 +1  119.8708126 +1  179.5157827 +1    11     9     5
  H(HETATM   13  H5  AES A   1)   1.08856785 +1  119.3485840 +1  178.6690655 +1     8     4     3
  H(HETATM   14  H6  AES A   1)   1.08128966 +1  119.1748227 +1  178.9109468 +1     9     5     4
  H(HETATM   15  H7  AES A   1)   1.07536529 +1  121.5971413 +1  179.3168823 +1    10     8     4

 XPARAM 
  1  1   -0.0726  1  2    0.0498  1  3   -0.0788  2  1    2.9423  2  2    0.0180
  2  3    0.1604  3  1    2.3178  3  2    1.4643  3  3    0.0218  4  1    2.3430
  4  2    1.7198  4  3    6.3068  5  1    1.4398  5  2    0.5667  5  3    3.0978
  6  1    1.1938  6  2    0.9693  6  3   -0.0141  7  1    1.1951  7  2    0.9707
  7  3   -0.0017  8  1    1.3762  8  2    2.6686  8  3    3.1143  9  1    1.4084
  9  2    2.0824  9  3    3.1410 10  1    1.3893 10  2    2.1012 10  3    6.2620
 11  1    1.3781 11  2    2.0646 11  3   -0.0135 12  1    1.0854 12  2    2.0921
 12  3    3.1331 13  1    1.0886 13  2    2.0830 13  3    3.1184 14  1    1.0813
 14  2    2.0800 14  3    3.1226 15  1    1.0754 15  2    2.1223 15  3    3.1297
 grad
      -0.00000   -0.00001   -0.00000   -2.26904    0.00000    0.00000   -4.43647    8.21371
       0.00000   -4.35757    4.36667    0.07573   -3.26333    9.29108    4.13940   -9.88857
       5.43721    0.20456  -13.35663   -3.49561    0.19481   -2.17602    4.68786   -6.18925
      -9.95821    1.46270   -5.67921   -3.33724    9.36353   -4.19520   -6.62178   -3.62094
      -4.24047   -2.34126    1.72278   -0.95217   -1.59272   -0.48757   -0.49949   -0.13408
      -0.25707   -0.66299   -0.91018    1.35369   -0.86423
 CYCLE:    13 TIME:   0.008 TIME LEFT:  2.00D  GRAD.:    31.125 HEAT: -66.03608

          HESSIAN HAS  0 NEGATIVE EIGENVALUE(S)
  MIN SEARCH, CORRECT HESSIAN, TRYING PURE NR STEP
 LAMBDA THAT MINIMIZES ALONG ALL MODES =        0.000000000
 PURE NR-STEP HAS LENGTH   0.02832

  HEAT OF FORMATION       -66.000531278346898    
 PARAMETERS       -0.082   0.049  -0.071   2.939   0.025   0.162   2.320   1.462
   0.014   2.342   1.725   6.300   1.434   0.563   3.096   1.198   0.963  -0.016

   1.209   0.973  -0.004   1.375   2.668   3.117   1.410   2.081   3.144   1.389

   2.097   6.263   1.379   2.068  -0.011   1.087   2.092   3.135   1.088   2.089

   3.118   1.080   2.083   3.123   1.076   2.119   3.131
 GRADIENT         -0.000  -0.000  -0.000 -11.479   0.000   0.000 -10.144   5.847
   0.000  -8.299  15.950  -2.970  -7.159  -7.297  -1.106  -0.112  -8.120  -2.575

  21.846   1.417  -1.177  -4.788   0.799  -1.949  -6.288   2.194  -0.717  -5.809

   5.666  -1.161  -4.756  -0.048  -0.930  -1.121   1.024  -0.439  -1.462  -0.059

  -0.358  -0.769   0.581  -0.427  -1.150   1.511  -0.464
       HoF         ACTUAL,  PREDICTED ENERGY CHANGE, RATIO
   -66.0005313     0.0355500          -0.2149494   -0.1653877
 UNACCEPTABLE RATIO, REJECTING STEP, REDUCING DMAX TO 0.0142
  MIN SEARCH, CORRECT HESSIAN, TRYING PURE NR STEP
 LAMBDA THAT MINIMIZES ALONG ALL MODES =        0.000000000
 PURE NR-STEP HAS LENGTH   0.02832
 LAMBDA THAT MINIMIZES ALONG ALL MODES =       -0.429554823
 P-RFO-STEP   HAS LENGTH   0.02828
 LAMBDA THAT MINIMIZES ALONG ALL MODES =     -473.035862622
 QA/TRIM-STEP HAS LENGTH   0.01416

  HEAT OF FORMATION       -66.122940834968176    
 PARAMETERS       -0.078   0.049  -0.077   2.941   0.021   0.161   2.318   1.463
   0.020   2.343   1.723   6.304   1.437   0.564   3.096   1.196   0.965  -0.015

   1.203   0.972  -0.003   1.375   2.667   3.116   1.410   2.082   3.143   1.389

   2.100   6.263   1.378   2.067  -0.012   1.086   2.092   3.134   1.089   2.085

   3.118   1.080   2.081   3.123   1.075   2.122   3.130
 GRADIENT         -0.000  -0.000  -0.000  -7.720   0.000   0.000  -8.578   5.765
   0.000  -6.271  11.467  -0.934  -4.123  -1.743   0.172  -4.068  -2.535  -0.709

   6.605   0.194  -0.381  -4.614   3.461  -2.690  -6.062   4.023  -1.863  -5.099

   7.593  -1.761  -6.197  -0.101  -1.755  -1.610   1.179  -0.628  -1.537  -0.392

  -0.348  -0.702   0.231  -0.487  -1.285   1.667  -0.586
       HoF         ACTUAL,  PREDICTED ENERGY CHANGE, RATIO
   -66.1229408    -0.0868596          -0.1725825    0.5032931
     STEPSIZE USED IS  0.01416
 CALCULATED STEP
    -0.005069 -0.000301  0.002017 -0.001762  0.003012  0.000206  0.000065 -0.001741
    -0.002235 -0.000039  0.003598 -0.002387 -0.002454 -0.002326 -0.002130  0.002368
    -0.003790 -0.000775  0.007726  0.001588 -0.000786 -0.001521 -0.001421  0.001759
     0.001737 -0.000172  0.001871 -0.000015 -0.001663  0.000932  0.000102  0.002147
     0.001176  0.000614 -0.000264  0.000420  0.000039  0.002136 -0.000162 -0.000844
     0.001504  0.000111 -0.000119 -0.000653  0.000277
     NEW TRUST RADIUS =  0.02002
*REMARK   3 AES = 4-(2-Aminoethyl)benzenesulfonyl fluoride res:    1
 PM7 CHARGE=-1 EF NOXYZ PRNT=2 PDBOUT COMPFG GRAPHF
 1H-indole-2,3-dione

  O(HETATM    1  O1  AES A   1)  -0.07769458 +1    0.0494979 +1   -0.0767659 +1
  O(HETATM    2  O2  AES A   1)   2.94050353 +1    1.2044938 +1    9.2016405 +1     1     0     0
  N(HETATM    3  N   AES A   1)   2.31790883 +1   83.7960181 +1    1.1185155 +1     2     1     0
  C(HETATM    4  C1  AES A   1)   2.34297749 +1   98.7459674 +1    1.2139671 +1     3     2     1
  C(HETATM    5  C2  AES A   1)   1.43730229 +1   32.3352930 +1  177.3675571 +1     4     3     2
  C(HETATM    6  C3  AES A   1)   1.19615583 +1   55.3175894 +1   -0.8496512 +1     1     2     3
  C(HETATM    7  C4  AES A   1)   1.20286446 +1   55.7067502 +1   -0.1446943 +1     2     1     3
  C(HETATM    8  C5  AES A   1)   1.37465014 +1  152.8192450 +1  178.5375966 +1     4     3     2
  C(HETATM    9  C6  AES A   1)   1.41011552 +1  119.3049207 +1 -179.9277005 +1     5     4     3
  C(HETATM   10  C7  AES A   1)   1.38927890 +1  120.2966376 +1   -1.1617885 +1     8     4     3
  C(HETATM   11  C8  AES A   1)   1.37823469 +1  118.4165846 +1   -0.7084590 +1     9     5     4
  H(HETATM   12  H8  AES A   1)   1.08602742 +1  119.8557033 +1  179.5398429 +1    11     9     5
  H(HETATM   13  H5  AES A   1)   1.08860669 +1  119.4709872 +1  178.6597565 +1     8     4     3
  H(HETATM   14  H6  AES A   1)   1.08044528 +1  119.2610003 +1  178.9173058 +1     9     5     4
  H(HETATM   15  H7  AES A   1)   1.07524597 +1  121.5597104 +1  179.3327393 +1    10     8     4

 XPARAM 
  1  1   -0.0777  1  2    0.0495  1  3   -0.0768  2  1    2.9405  2  2    0.0210
  2  3    0.1606  3  1    2.3179  3  2    1.4625  3  3    0.0195  4  1    2.3430
  4  2    1.7234  4  3    6.3044  5  1    1.4373  5  2    0.5644  5  3    3.0956
  6  1    1.1962  6  2    0.9655  6  3   -0.0148  7  1    1.2029  7  2    0.9723
  7  3   -0.0025  8  1    1.3747  8  2    2.6672  8  3    3.1161  9  1    1.4101
  9  2    2.0823  9  3    3.1429 10  1    1.3893 10  2    2.0996 10  3    6.2629
 11  1    1.3782 11  2    2.0668 11  3   -0.0124 12  1    1.0860 12  2    2.0919
 12  3    3.1336 13  1    1.0886 13  2    2.0852 13  3    3.1182 14  1    1.0804
 14  2    2.0815 14  3    3.1227 15  1    1.0752 15  2    2.1216 15  3    3.1299
 grad
      -0.00000   -0.00001   -0.00000   -7.71969    0.00000    0.00000   -8.57843    5.76475
       0.00000   -6.27093   11.46666   -0.93395   -4.12270   -1.74318    0.17233   -4.06813
      -2.53473   -0.70912    6.60549    0.19390   -0.38123   -4.61378    3.46141   -2.68976
      -6.06213    4.02278   -1.86331   -5.09918    7.59291   -1.76104   -6.19745   -0.10133
      -1.75538   -1.61041    1.17864   -0.62828   -1.53674   -0.39233   -0.34765   -0.70233
       0.23103   -0.48722   -1.28536    1.66720   -0.58604
 CYCLE:    14 TIME:   0.008 TIME LEFT:  2.00D  GRAD.:    25.752 HEAT: -66.12294

          HESSIAN HAS  0 NEGATIVE EIGENVALUE(S)
  MIN SEARCH, CORRECT HESSIAN, TRYING PURE NR STEP
 LAMBDA THAT MINIMIZES ALONG ALL MODES =        0.000000000
 PURE NR-STEP HAS LENGTH   0.02888
 LAMBDA THAT MINIMIZES ALONG ALL MODES =       -0.169383975
 P-RFO-STEP   HAS LENGTH   0.02881
 LAMBDA THAT MINIMIZES ALONG ALL MODES =      -37.823645125
 QA/TRIM-STEP HAS LENGTH   0.02002

  HEAT OF FORMATION       -66.230977620129124    
 PARAMETERS       -0.088   0.047  -0.078   2.945   0.027   0.172   2.322   1.460
   0.014   2.343   1.723   6.303   1.438   0.564   3.094   1.195   0.966  -0.015

   1.201   0.972  -0.003   1.374   2.669   3.116   1.412   2.081   3.143   1.390

   2.098   6.262   1.380   2.068  -0.013   1.087   2.091   3.134   1.089   2.085

   3.116   1.081   2.080   3.122   1.076   2.119   3.130
 GRADIENT         -0.000  -0.000  -0.000  -5.248   0.000   0.000  -6.550   1.787
   0.000  -5.262   8.280  -1.946  -3.225   1.998  -0.529  -4.963   1.262  -1.524

  -1.627   0.566  -0.814  -5.768   3.419  -2.298  -2.478   4.725  -1.295  -5.328

   5.960  -1.435  -2.741   1.748  -1.381  -0.846   0.894  -0.542  -1.308  -0.536

  -0.378  -0.236   0.105  -0.481  -1.071   1.682  -0.531
       HoF         ACTUAL,  PREDICTED ENERGY CHANGE, RATIO
   -66.2309776    -0.1080368          -0.0816247    1.3235800
     STEPSIZE USED IS  0.02002
 CALCULATED STEP
    -0.010191 -0.002555 -0.001026  0.004406  0.006261  0.011604  0.003853 -0.002531
    -0.005030  0.000368 -0.000268 -0.001625  0.000730  0.000056 -0.002058 -0.000748
     0.000724 -0.000357 -0.002356 -0.000089 -0.000944 -0.000152  0.001614  0.000184
     0.001905 -0.001581  0.000175  0.000402 -0.001966 -0.001179  0.001783  0.001282
    -0.000435  0.000761 -0.000889  0.000754  0.000170  0.000227 -0.001962  0.000414
    -0.001504 -0.000814  0.000677 -0.002381  0.000163
     NEW TRUST RADIUS =  0.02832
*REMARK   3 AES = 4-(2-Aminoethyl)benzenesulfonyl fluoride res:    1
 PM7 CHARGE=-1 EF NOXYZ PRNT=2 PDBOUT COMPFG GRAPHF
 1H-indole-2,3-dione

  O(HETATM    1  O1  AES A   1)  -0.08788515 +1    0.0469427 +1   -0.0777918 +1
  O(HETATM    2  O2  AES A   1)   2.94490916 +1    1.5632460 +1    9.8665085 +1     1     0     0
  N(HETATM    3  N   AES A   1)   2.32176200 +1   83.6510107 +1    0.8303227 +1     2     1     0
  C(HETATM    4  C1  AES A   1)   2.34334536 +1   98.7306167 +1    1.1208608 +1     3     2     1
  C(HETATM    5  C2  AES A   1)   1.43803181 +1   32.3385142 +1  177.2496556 +1     4     3     2
  C(HETATM    6  C3  AES A   1)   1.19540739 +1   55.3590752 +1   -0.8701163 +1     1     2     3
  C(HETATM    7  C4  AES A   1)   1.20050813 +1   55.7016742 +1   -0.1987741 +1     2     1     3
  C(HETATM    8  C5  AES A   1)   1.37449802 +1  152.9116956 +1  178.5481370 +1     4     3     2
  C(HETATM    9  C6  AES A   1)   1.41202030 +1  119.2143508 +1 -179.9176718 +1     5     4     3
[...]
  C(HETATM    5  C2  AES A   1)   1.44600794 +1   31.8201721 +1 -179.7219152 +1     4     3     2
  C(HETATM    6  C3  AES A   1)   1.19926061 +1   54.0898210 +1    0.5332870 +1     1     2     3
  C(HETATM    7  C4  AES A   1)   1.20384108 +1   55.5190970 +1   -0.0810865 +1     2     1     3
  C(HETATM    8  C5  AES A   1)   1.37789221 +1  153.0593868 +1 -178.8567001 +1     4     3     2
  C(HETATM    9  C6  AES A   1)   1.41431863 +1  118.7048678 +1  179.8785502 +1     5     4     3
  C(HETATM   10  C7  AES A   1)   1.39507512 +1  119.2734506 +1   -0.7900904 +1     8     4     3
  C(HETATM   11  C8  AES A   1)   1.38174449 +1  118.5414548 +1   -0.2053734 +1     9     5     4
  H(HETATM   12  H8  AES A   1)   1.08884401 +1  119.3112013 +1  179.9618833 +1    11     9     5
  H(HETATM   13  H5  AES A   1)   1.08876144 +1  120.1556213 +1  179.2077722 +1     8     4     3
  H(HETATM   14  H6  AES A   1)   1.08070298 +1  119.2018992 +1  179.8144660 +1     9     5     4
  H(HETATM   15  H7  AES A   1)   1.07836875 +1  120.3397159 +1  179.9740401 +1    10     8     4

 XPARAM 
  1  1   -0.1795  1  2    0.0520  1  3   -0.1483  2  1    2.9846  2  2    0.0856
  2  3    0.3681  3  1    2.3350  3  2    1.4551  3  3   -0.2320  4  1    2.3598
  4  2    1.7155  4  3    6.2729  5  1    1.4460  5  2    0.5554  5  3    3.1464
  6  1    1.1993  6  2    0.9440  6  3    0.0093  7  1    1.2038  7  2    0.9690
  7  3   -0.0014  8  1    1.3779  8  2    2.6714  8  3    3.1615  9  1    1.4143
  9  2    2.0718  9  3    3.1395 10  1    1.3951 10  2    2.0817 10  3    6.2694
 11  1    1.3817 11  2    2.0689 11  3   -0.0036 12  1    1.0888 12  2    2.0824
 12  3    3.1409 13  1    1.0888 13  2    2.0971 13  3    3.1278 14  1    1.0807
 14  2    2.0805 14  3    3.1384 15  1    1.0784 15  2    2.1003 15  3    3.1411
 grad
      -0.00000   -0.00001   -0.00000    0.05645    0.00000    0.00000    0.04063    0.00058
       0.00000    0.29687    0.53735   -0.30675    0.29013    0.14729    0.12968    0.10729
       0.12704    0.07679    0.14870    0.02396   -0.01834    0.21916    0.44844   -0.04330
       0.24099    0.32678   -0.17399    0.28647    0.69153   -0.13136    0.10654    0.13078
      -0.12270    0.12020    0.08415   -0.06435    0.10322    0.09804   -0.06075   -0.01609
       0.22718   -0.03549    0.04789   -0.00527   -0.05112
 CYCLE:    33 TIME:   0.008 TIME LEFT:  2.00D  GRAD.:     1.353 HEAT: -66.69030

          HESSIAN HAS  0 NEGATIVE EIGENVALUE(S)
  MIN SEARCH, CORRECT HESSIAN, TRYING PURE NR STEP
 LAMBDA THAT MINIMIZES ALONG ALL MODES =        0.000000000
 PURE NR-STEP HAS LENGTH   0.01512

  HEAT OF FORMATION       -66.691944120560947    
 PARAMETERS       -0.178   0.051  -0.146   2.981   0.086   0.378   2.336   1.456
  -0.246   2.361   1.714   6.279   1.447   0.555   3.145   1.199   0.945   0.003

   1.204   0.971  -0.000   1.378   2.671   3.155   1.414   2.071   3.142   1.395

   2.081   6.274   1.382   2.069  -0.005   1.088   2.080   3.144   1.089   2.098

   3.132   1.081   2.080   3.139   1.078   2.100   3.141
 GRADIENT         -0.000  -0.000  -0.000  -0.080   0.000   0.000   0.083   0.360
   0.000   0.456   0.460   0.121   0.223   0.303   0.076  -0.057   0.032  -0.000

  -0.055   0.166   0.014   0.054  -0.126   0.023  -0.087   0.064   0.053   0.418

   0.181  -0.039   0.243   0.220  -0.044  -0.175  -0.346   0.062   0.100   0.158

  -0.051   0.328   0.198   0.014  -0.060   0.041  -0.036
       HoF         ACTUAL,  PREDICTED ENERGY CHANGE, RATIO
   -66.6919441    -0.0016414          -0.0015978    1.0272620
     STEPSIZE USED IS  0.01512
 CALCULATED STEP
     0.001828 -0.001473  0.002211 -0.003510  0.000094  0.009761  0.000675  0.001320
    -0.013806  0.001033 -0.001428  0.006301  0.000546 -0.000402 -0.001545 -0.000058
     0.001160 -0.006234 -0.000214  0.002076  0.001232 -0.000122 -0.000226 -0.006790
    -0.000517 -0.000317  0.002448  0.000355 -0.000391  0.004553  0.000205  0.000373
    -0.000999 -0.000454 -0.002846  0.003340 -0.000071  0.000789  0.004013  0.000603
    -0.000158  0.000549 -0.000131 -0.000130 -0.000563
     NEW TRUST RADIUS =  0.16018
*REMARK   3 AES = 4-(2-Aminoethyl)benzenesulfonyl fluoride res:    1
 PM7 CHARGE=-1 EF NOXYZ PRNT=2 PDBOUT COMPFG GRAPHF
 1H-indole-2,3-dione

  O(HETATM    1  O1  AES A   1)  -0.17770115 +1    0.0505349 +1   -0.1460747 +1
  O(HETATM    2  O2  AES A   1)   2.98110486 +1    4.9087193 +1   21.6503954 +1     1     0     0
  N(HETATM    3  N   AES A   1)   2.33563583 +1   83.4457020 +1  -14.0826715 +1     2     1     0
  C(HETATM    4  C1  AES A   1)   2.36083941 +1   98.2078470 +1   -0.2270245 +1     3     2     1
  C(HETATM    5  C2  AES A   1)   1.44655383 +1   31.7971480 +1 -179.8104215 +1     4     3     2
  C(HETATM    6  C3  AES A   1)   1.19920248 +1   54.1562887 +1    0.1761255 +1     1     2     3
  C(HETATM    7  C4  AES A   1)   1.20362755 +1   55.6380526 +1   -0.0105016 +1     2     1     3
  C(HETATM    8  C5  AES A   1)   1.37777032 +1  153.0464315 +1 -179.2457328 +1     4     3     2
  C(HETATM    9  C6  AES A   1)   1.41380158 +1  118.6866809 +1 -179.9811947 +1     5     4     3
  C(HETATM   10  C7  AES A   1)   1.39542981 +1  119.2510721 +1   -0.5292422 +1     8     4     3
  C(HETATM   11  C8  AES A   1)   1.38194924 +1  118.5628255 +1   -0.2625905 +1     9     5     4
  H(HETATM   12  H8  AES A   1)   1.08839009 +1  119.1481308 +1 -179.8467219 +1    11     9     5
  H(HETATM   13  H5  AES A   1)   1.08869030 +1  120.2008318 +1  179.4377277 +1     8     4     3
  H(HETATM   14  H6  AES A   1)   1.08130569 +1  119.1928415 +1  179.8459169 +1     9     5     4
  H(HETATM   15  H7  AES A   1)   1.07823757 +1  120.3322478 +1  179.9417862 +1    10     8     4

 XPARAM 
  1  1   -0.1777  1  2    0.0505  1  3   -0.1461  2  1    2.9811  2  2    0.0857
  2  3    0.3779  3  1    2.3356  3  2    1.4564  3  3   -0.2458  4  1    2.3608
  4  2    1.7141  4  3    6.2792  5  1    1.4466  5  2    0.5550  5  3    3.1449
  6  1    1.1992  6  2    0.9452  6  3    0.0031  7  1    1.2036  7  2    0.9711
  7  3   -0.0002  8  1    1.3778  8  2    2.6712  8  3    3.1548  9  1    1.4138
  9  2    2.0715  9  3    3.1419 10  1    1.3954 10  2    2.0813 10  3    6.2739
 11  1    1.3819 11  2    2.0693 11  3   -0.0046 12  1    1.0884 12  2    2.0795
 12  3    3.1443 13  1    1.0887 13  2    2.0979 13  3    3.1318 14  1    1.0813
 14  2    2.0803 14  3    3.1389 15  1    1.0782 15  2    2.1002 15  3    3.1406
 grad
      -0.00000   -0.00001   -0.00000   -0.08032    0.00000    0.00000    0.08329    0.35988
       0.00000    0.45612    0.45994    0.12089    0.22254    0.30347    0.07615   -0.05662
       0.03225   -0.00021   -0.05482    0.16583    0.01403    0.05401   -0.12609    0.02329
      -0.08678    0.06429    0.05339    0.41803    0.18098   -0.03908    0.24260    0.22006
      -0.04380   -0.17493   -0.34569    0.06182    0.09964    0.15798   -0.05068    0.32820
       0.19814    0.01357   -0.05984    0.04083   -0.03613
 CYCLE:    34 TIME:   0.000 TIME LEFT:  2.00D  GRAD.:     1.207 HEAT: -66.69194

          HESSIAN HAS  0 NEGATIVE EIGENVALUE(S)
  MIN SEARCH, CORRECT HESSIAN, TRYING PURE NR STEP
 LAMBDA THAT MINIMIZES ALONG ALL MODES =        0.000000000
 PURE NR-STEP HAS LENGTH   0.00796

  HEAT OF FORMATION       -66.692549684696132    
 PARAMETERS       -0.178   0.052  -0.146   2.983   0.086   0.374   2.336   1.456
  -0.242   2.360   1.715   6.277   1.446   0.555   3.145   1.199   0.944   0.005

   1.204   0.970  -0.001   1.378   2.671   3.157   1.414   2.072   3.141   1.395

   2.081   6.272   1.382   2.069  -0.004   1.089   2.081   3.143   1.089   2.097

   3.131   1.081   2.080   3.139   1.078   2.100   3.141
 GRADIENT         -0.000  -0.000  -0.000  -0.017   0.000   0.000   0.007  -0.005
   0.000   0.241   0.137  -0.040   0.145   0.117   0.068   0.021   0.085   0.047

   0.016   0.053  -0.013   0.125   0.089   0.037   0.044   0.175  -0.004   0.214

   0.284  -0.046   0.125   0.135  -0.050  -0.072  -0.143   0.020   0.060   0.104

  -0.049   0.180   0.109  -0.002  -0.012   0.052  -0.025
       HoF         ACTUAL,  PREDICTED ENERGY CHANGE, RATIO
   -66.6925497    -0.0006056          -0.0009822    0.6165303
     STEPSIZE USED IS  0.00796
 CALCULATED STEP
    -0.000576  0.000996  0.000148  0.001610  0.000154 -0.003701 -0.000128 -0.000593
     0.004234 -0.000634  0.000460 -0.002126 -0.000414  0.000174  0.000343  0.000006
    -0.000718  0.002327  0.000074 -0.000864 -0.000627  0.000148  0.000193  0.002124
     0.000289  0.000195 -0.000925 -0.000300 -0.000048 -0.001546 -0.000210 -0.000227
     0.000537  0.000157  0.001438 -0.001273 -0.000048 -0.000519 -0.001236 -0.000251
    -0.000656 -0.000072  0.000085  0.000245  0.000586
     NEW TRUST RADIUS =  0.16018
*REMARK   3 AES = 4-(2-Aminoethyl)benzenesulfonyl fluoride res:    1
 PM7 CHARGE=-1 EF NOXYZ PRNT=2 PDBOUT COMPFG GRAPHF
 1H-indole-2,3-dione

  O(HETATM    1  O1  AES A   1)  -0.17827738 +1    0.0515305 +1   -0.1459268 +1
  O(HETATM    2  O2  AES A   1)   2.98271529 +1    4.9175161 +1   21.4383296 +1     1     0     0
  N(HETATM    3  N   AES A   1)   2.33550795 +1   83.4117524 +1  -13.8400723 +1     2     1     0
  C(HETATM    4  C1  AES A   1)   2.36020589 +1   98.2342282 +1   -0.3488480 +1     3     2     1
  C(HETATM    5  C2  AES A   1)   1.44613969 +1   31.8071235 +1 -179.7907943 +1     4     3     2
  C(HETATM    6  C3  AES A   1)   1.19920850 +1   54.1151434 +1    0.3094596 +1     1     2     3
  C(HETATM    7  C4  AES A   1)   1.20370200 +1   55.5885414 +1   -0.0464410 +1     2     1     3
  C(HETATM    8  C5  AES A   1)   1.37791880 +1  153.0575181 +1 -179.1240093 +1     4     3     2
  C(HETATM    9  C6  AES A   1)   1.41409063 +1  118.6978579 +1  179.9658008 +1     5     4     3
  C(HETATM   10  C7  AES A   1)   1.39513018 +1  119.2483473 +1   -0.6178169 +1     8     4     3
  C(HETATM   11  C8  AES A   1)   1.38173952 +1  118.5498165 +1   -0.2318306 +1     9     5     4
  H(HETATM   12  H8  AES A   1)   1.08854678 +1  119.2305390 +1 -179.9196768 +1    11     9     5
  H(HETATM   13  H5  AES A   1)   1.08864260 +1  120.1711153 +1  179.3669152 +1     8     4     3
  H(HETATM   14  H6  AES A   1)   1.08105472 +1  119.1552733 +1  179.8418084 +1     9     5     4
  H(HETATM   15  H7  AES A   1)   1.07832262 +1  120.3462717 +1  179.9753587 +1    10     8     4

 XPARAM 
  1  1   -0.1783  1  2    0.0515  1  3   -0.1459  2  1    2.9827  2  2    0.0858
  2  3    0.3742  3  1    2.3355  3  2    1.4558  3  3   -0.2416  4  1    2.3602
  4  2    1.7145  4  3    6.2771  5  1    1.4461  5  2    0.5551  5  3    3.1452
  6  1    1.1992  6  2    0.9445  6  3    0.0054  7  1    1.2037  7  2    0.9702
  7  3   -0.0008  8  1    1.3779  8  2    2.6714  8  3    3.1569  9  1    1.4141
  9  2    2.0717  9  3    3.1410 10  1    1.3951 10  2    2.0813 10  3    6.2724
 11  1    1.3817 11  2    2.0691 11  3   -0.0040 12  1    1.0885 12  2    2.0810
 12  3    3.1430 13  1    1.0886 13  2    2.0974 13  3    3.1305 14  1    1.0811
 14  2    2.0797 14  3    3.1388 15  1    1.0783 15  2    2.1004 15  3    3.1412
 grad
      -0.00000   -0.00001   -0.00000   -0.01730    0.00000    0.00000    0.00710   -0.00481
       0.00000    0.24112    0.13739   -0.04034    0.14453    0.11665    0.06777    0.02116
       0.08523    0.04733    0.01582    0.05270   -0.01334    0.12461    0.08927    0.03734
       0.04382    0.17466   -0.00398    0.21418    0.28352   -0.04561    0.12537    0.13517
      -0.04988   -0.07184   -0.14326    0.01961    0.06010    0.10389   -0.04856    0.17967
       0.10915   -0.00171   -0.01234    0.05236   -0.02451
 CYCLE:    35 TIME:   0.008 TIME LEFT:  2.00D  GRAD.:     0.666 HEAT: -66.69255

     GRADIENT =  0.66629 IS LESS THAN CUTOFF =  1.00000



  HEAT OF FORMATION       -66.692553832865087    

 -------------------------------------------------------------------------------
 PM7 CHARGE=-1 EF NOXYZ PRNT=2 PDBOUT COMPFG GRAPHF
 1H-indole-2,3-dione



     GEOMETRY OPTIMISED USING EIGENVECTOR FOLLOWING (EF).     
     SCF FIELD WAS ACHIEVED                                   


                              PM7 CALCULATION
                                                       MOPAC v22.0.6 Linux
                                                       Sun Oct 12 20:11:55 2025




          FINAL HEAT OF FORMATION =        -66.69255 KCAL/MOL =    -279.04165 KJ/MOL


          COSMO AREA              =        164.18 SQUARE ANGSTROMS
          COSMO VOLUME            =        160.34 CUBIC ANGSTROMS

          GRADIENT NORM           =          0.66629          =       0.17203 PER ATOM
          IONIZATION POTENTIAL    =          4.385548 EV
          HOMO LUMO ENERGIES (EV) =         -4.386  3.112
          NO. OF FILLED LEVELS    =         27
          MOLECULAR WEIGHT        =        146.1251         POINT GROUP:  Cs  

          MOLECULAR DIMENSIONS (Angstroms)

            Atom       Atom       Distance
            H    15    O     2     6.90702
            H    14    O     1     5.32328
            O     1    O     2     0.01803


          SCF CALCULATIONS        =         42

          WALL-CLOCK TIME         =      0.375 SECONDS
          COMPUTATION TIME        =      0.132 SECONDS




  ATOM               CHEMICAL                 BOND LENGTH      BOND ANGLE     TWIST ANGLE 
 NUMBER               SYMBOL                  (ANGSTROMS)      (DEGREES)       (DEGREES) 
   (I)                                           NA:I           NB:NA:I       NC:NB:NA:I       NA    NB    NC 
     1       O(HETATM    1  O1  AES A   1)   -0.17827738  *    0.0515305  *   -0.1459268  *
     2       O(HETATM    2  O2  AES A   1)    2.98271529  *    4.9175161  *   21.4383296  *     1     0     0
     3       N(HETATM    3  N   AES A   1)    2.33550795  *   83.4117524  *  -13.8400723  *     2     1     0
     4       C(HETATM    4  C1  AES A   1)    2.36020589  *   98.2342282  *   -0.3488480  *     3     2     1
     5       C(HETATM    5  C2  AES A   1)    1.44613969  *   31.8071235  * -179.7907943  *     4     3     2
     6       C(HETATM    6  C3  AES A   1)    1.19920850  *   54.1151434  *    0.3094596  *     1     2     3
     7       C(HETATM    7  C4  AES A   1)    1.20370200  *   55.5885414  *   -0.0464410  *     2     1     3
     8       C(HETATM    8  C5  AES A   1)    1.37791880  *  153.0575181  * -179.1240093  *     4     3     2
     9       C(HETATM    9  C6  AES A   1)    1.41409063  *  118.6978579  *  179.9658008  *     5     4     3
    10       C(HETATM   10  C7  AES A   1)    1.39513018  *  119.2483473  *   -0.6178169  *     8     4     3
    11       C(HETATM   11  C8  AES A   1)    1.38173952  *  118.5498165  *   -0.2318306  *     9     5     4
    12       H(HETATM   12  H8  AES A   1)    1.08854678  *  119.2305390  * -179.9196768  *    11     9     5
    13       H(HETATM   13  H5  AES A   1)    1.08864260  *  120.1711153  *  179.3669152  *     8     4     3
    14       H(HETATM   14  H6  AES A   1)    1.08105472  *  119.1552733  *  179.8418084  *     9     5     4
    15       H(HETATM   15  H7  AES A   1)    1.07832262  *  120.3462717  *  179.9753587  *    10     8     4

                             CARTESIAN COORDINATES

   1    O       -0.178277382     0.051530460    -0.145926758
   2    O        2.804437907     0.051530460    -0.145926758
   3    N        2.536477165     2.371615461    -0.145926758
   4    C        0.177288144     2.439414580    -0.160148746
   5    C        1.427635570     3.165997934    -0.154861665
   6    C        0.524648564     1.023110928    -0.151174402
   7    C        2.124187377     1.044584882    -0.146731677
   8    C       -1.032557530     3.098705592    -0.176550960
   9    C        1.391557933     4.579618972    -0.159988541
  10    C       -1.048611028     4.493724252    -0.183860756
  11    C        0.161446777     5.208755213    -0.174761224
  12    H        0.120762302     6.296527985    -0.180171078
  13    H       -1.963294046     2.534066142    -0.183936531
  14    H        2.321863487     5.130226420    -0.153482779
  15    H       -1.985339203     5.027714174    -0.197080869


           Empirical Formula: C8 H4 N O2  =    15 atoms



      MOLECULAR POINT GROUP   :   Cs  


                  EIGENVALUES  
 -31.48909 -27.04580 -26.53276 -25.94515 -22.65111 -21.37530 -19.83664 -17.02257
 -16.06709 -15.44075 -12.83317 -12.72192 -11.98267 -11.57051 -11.09585 -10.60573
 -10.09598  -9.68905  -9.53756  -9.34990  -8.53229  -7.65301  -7.21504  -7.15867
  -6.52293  -4.95206  -4.38555   3.11158   3.99289   4.72229   6.20292   6.52398
   6.61542   7.33029   7.59604   7.97966   8.35563   8.46042   8.69696   9.08129
   9.09355   9.19075   9.39722   9.63269   9.73775   9.76301   9.96277  10.21439


              NET ATOMIC CHARGES AND DIPOLE CONTRIBUTIONS

  ATOM NO.                 TYPE                        CHARGE      No. of ELECS.   s-Pop       p-Pop       
    1          O(HETATM    1  O1  AES A   1)          -0.462974        6.4630     1.87304     4.58994
    2          O(HETATM    2  O2  AES A   1)          -0.505350        6.5053     1.87526     4.63009
    3          N(HETATM    3  N   AES A   1)          -0.683953        5.6840     1.78905     3.89490
    4          C(HETATM    4  C1  AES A   1)          -0.405585        4.4056     1.06233     3.34325
    5          C(HETATM    5  C2  AES A   1)           0.352151        3.6478     1.07796     2.56989
    6          C(HETATM    6  C3  AES A   1)           0.370172        3.6298     1.16270     2.46713
    7          C(HETATM    7  C4  AES A   1)           0.503864        3.4961     1.13025     2.36589
    8          C(HETATM    8  C5  AES A   1)           0.030428        3.9696     1.08174     2.88783
    9          C(HETATM    9  C6  AES A   1)          -0.324644        4.3246     1.06638     3.25826
   10          C(HETATM   10  C7  AES A   1)          -0.364346        4.3643     1.06094     3.30341
   11          C(HETATM   11  C8  AES A   1)          -0.032048        4.0320     1.08408     2.94797
   12          H(HETATM   12  H8  AES A   1)           0.110291        0.8897     0.88971
   13          H(HETATM   13  H5  AES A   1)           0.129987        0.8700     0.87001
   14          H(HETATM   14  H6  AES A   1)           0.154600        0.8454     0.84540
   15          H(HETATM   15  H7  AES A   1)           0.127407        0.8726     0.87259
 DIPOLE           X         Y         Z       TOTAL
 POINT-CHG.    -3.794     5.036    -0.049     6.305
 HYBRID        -0.801    -0.414    -0.004     0.901
 SUM           -4.594     4.622    -0.053     6.517


          ATOMIC ORBITAL ELECTRON POPULATIONS

                   Atom                  s        px        py        pz   
   O(HETATM    1  O1  AES A   1)   1.87304   1.68499   1.48812   1.41682
   O(HETATM    2  O2  AES A   1)   1.87526   1.68396   1.44336   1.50276
   N(HETATM    3  N   AES A   1)   1.78905   1.30785   1.10643   1.48062
   C(HETATM    4  C1  AES A   1)   1.06233   1.02047   1.04212   1.28067
   C(HETATM    5  C2  AES A   1)   1.07796   0.86816   0.93689   0.76484
   C(HETATM    6  C3  AES A   1)   1.16270   0.95678   0.85317   0.65718
   C(HETATM    7  C4  AES A   1)   1.13025   0.85502   0.81123   0.69964
   C(HETATM    8  C5  AES A   1)   1.08174   1.03324   0.98961   0.86499
   C(HETATM    9  C6  AES A   1)   1.06638   1.05053   1.01979   1.18794
   C(HETATM   10  C7  AES A   1)   1.06094   1.05089   1.01956   1.23296
   C(HETATM   11  C8  AES A   1)   1.08408   0.98603   1.05039   0.91155
   H(HETATM   12  H8  AES A   1)   0.88971
   H(HETATM   13  H5  AES A   1)   0.87001
   H(HETATM   14  H6  AES A   1)   0.84540
   H(HETATM   15  H7  AES A   1)   0.87259

           DATA FOR GRAPH WRITTEN TO DISK

 **********************
 *                    *
 * JOB ENDED NORMALLY *
 *                    *
 **********************



 TOTAL JOB TIME:             0.38 SECONDS

 == MOPAC DONE ==
