 *******************************************************************************
 **                                                                           **
 **                              MOPAC v22.0.6                                **
 **                                                                           **
 *******************************************************************************
 **          Digital Object Identifier (DOI): 10.5281/zenodo.6511958          **
 **    Visit the DOI location for information on how to cite this program.    **
 *******************************************************************************

                              PM7 CALCULATION RESULTS

 *******************************************************************************
 *  CALCULATION DONE:                                Sun Oct 12 20:19:26 2025  *
 *  PM7        - The PM7 Hamiltonian to be used
 *  PDBOUT     - PRINT GEOMETRY IN PDB FORMAT
 *  RESIDUES   - DETERMINE THE SEQUENCE OF RESIDUES
 *
 *
 *
 *                 CHARGE ON SYSTEM = +1
 *
 *
 *
 *  EF         - USE EF ROUTINE FOR MINIMUM SEARCH
 *  T=         - A TIME OF 172800.0 SECONDS REQUESTED
 *  DUMP=N     - RESTART FILE WRITTEN EVERY 7200.0 SECONDS REQUESTED
 *  NOXYZ      - CARTESIAN COORDINATES NOT TO BE PRINTED
 *  PRNT       - EXTRA PRINTING IN EF ROUTINE
 *  GRAPH      - GENERATE FILE FOR GRAPHICS
 *  COMPFG     - PRINT HEAT OF FORMATION CALC'D IN COMPFG
 *******************************************************************************
PM7 CHARGE=+1 EF NOXYZ PRNT=2 PDBOUT COMPFG GRAPHF
 24-methyl-5,7,18,20-tetraoxa-24-azoniahexacyclo[11.11.0.02,10.04,8.014,22.017,21]tetracosa-1(24),2,4(8),9,11,13,15,17(21),22-nonaene

  ATOM    CHEMICAL      BOND LENGTH      BOND ANGLE     TWIST ANGLE 
 NUMBER    SYMBOL       (ANGSTROMS)      (DEGREES)       (DEGREES) 
   (I)                     NA:I           NB:NA:I       NC:NB:NA:I       NA    NB    NC 
     1       O          0.00000000  *    0.0000000  *    0.0000000  *     0     0     0
     2       O          2.22669000  *    0.0000000  *    0.0000000  *     1     0     0
     3       O          9.81544200  *  126.6012490  *    0.0000000  *     1     2     0
     4       O          2.22513900  *  109.4780960  *   -0.0023840  *     3     1     2
     5       N          4.31523000  *  124.4584550  *   -0.0031520  *     1     2     3
     6       C          1.40242300  *  120.3560640  *    0.0012300  *     5     1     2
     7       C          1.45138700  *  117.5087150  *   -0.0031170  *     6     5     1
     8       C          1.42810100  *  120.4495920  *    0.0018520  *     7     6     5
     9       C          1.46960100  *  125.0785780  *  179.9963540  *     6     5     1
    10       C          1.40962200  *  118.3055280  *   -0.0004170  *     8     7     6
    11       C          1.44581200  *  118.6150840  *  179.9996460  *     9     6     5
    12       C          4.59737300  *   31.7480570  *    0.0038440  *     2     1     3
    13       C          1.33786500  *   70.8723260  *   -0.0044250  *     1     2     3
    14       C          1.40796500  *  119.9379400  * -179.9988120  *     7     6     5
    15       C          1.37145600  *  122.1029790  *   -0.0010710  *    14     7     6
    16       C          1.43874000  *  126.3520830  *   -0.0014710  *     9     6     5
    17       C          1.43844500  *  124.1857420  *  179.9985600  *     8     7     6
    18       C          1.33540800  *   70.5971550  *    0.0044720  *     2     1     3
    19       C          1.41402800  *  122.1314700  *  179.9988190  *    11     9     6
    20       C          1.33676600  *   38.7897970  *   -0.0072290  *     3     1     2
    21       C          1.33554000  *   70.4454040  *   -0.0032530  *     4     3     1
    22       C          1.47103800  *  113.9920230  *  179.9999350  *     5     1     2
    23       C          1.38392200  *  128.4990580  * -179.9996490  *    18     2     1
    24       C          1.39124200  *   36.8594940  * -179.9949360  *     2     1     3
    25       C          1.39106800  *   36.9064690  *  179.9960480  *     4     3     1
    26       H          1.08590100  *  120.7582680  * -179.9106070  *    12     5     1
    27       H          1.07432200  *  123.5445590  *  179.9994590  *    14     7     6
    28       H          1.08520000  *  118.3672110  * -179.9994820  *    15    14     7
    29       H          1.05924100  *  127.9304910  *    0.0007270  *    16     9     6
    30       H          1.07505200  *  123.6851710  *    0.0009130  *    17     8     7
    31       H          1.08402300  *  122.0862060  * -179.9996570  *    19    11     9
    32       H          1.11006300  *  109.8187430  *  116.5385690  *    22     5     1
    33       H          1.11006000  *  109.8188820  * -116.5309550  *    22     5     1
    34       H          1.11225700  *  113.8295900  *    0.0037400  *    22     5     1
    35       H          1.08239100  *  120.8967370  *   -0.0004150  *    23    18     2
    36       H          1.11067400  *  110.1043110  *  119.2206410  *    24     2     1
    37       H          1.11067300  *  110.1044870  * -119.2206180  *    24     2     1
    38       H          1.11070400  *  110.1192670  *  119.1992920  *    25     4     3
    39       H          1.11070600  *  110.1189830  * -119.1990310  *    25     4     3


 General Reference for PM7:
 "Optimization of Parameters for Semiempirical Methods VI: More Modifications to the 
 NDDO Approximations and Re-optimization of Parameters", J. J. P. Stewart, J. Mol. Mod., 1:32, 19 (2013)
 https://link.springer.com/article/10.1007/s00894-012-1667-x

           Empirical Formula: C20 H14 N O4  =    39 atoms



      MOLECULAR POINT GROUP   :   Cs  


      RHF CALCULATION, NO. OF DOUBLY OCCUPIED LEVELS = 61


          Geometry optimization using EF

  HEAT OF FORMATION        134.59033108370204    
 PARAMETERS        0.000   0.000   0.000   2.227   0.000   0.000   9.815   2.210
   0.000   2.225   1.911   6.283   4.315   2.172   6.283   1.402   2.101   0.000

   1.451   2.051   6.283   1.428   2.102   0.000   1.470   2.183   3.142   1.410

   2.065   6.283   1.446   2.070   3.142   4.597   0.554   0.000   1.338   1.237

   6.283   1.408   2.093   3.142   1.371   2.131   6.283   1.439   2.205   6.283

   1.438   2.167   3.142   1.335   1.232   0.000   1.414   2.132   3.142   1.337

   0.677   6.283   1.336   1.230   6.283   1.471   1.990   3.142   1.384   2.243

   3.142   1.391   0.643   3.142   1.391   0.644   3.142   1.086   2.108   3.143

   1.074   2.156   3.142   1.085   2.066   3.142   1.059   2.233   0.000   1.075

   2.159   0.000   1.084   2.131   3.142   1.110   1.917   2.034   1.110   1.917

   4.249   1.112   1.987   0.000   1.082   2.110   6.283   1.111   1.922   2.081

   1.111   1.922   4.202   1.111   1.922   2.080   1.111   1.922   4.203
 GRADIENT          0.000   0.000  -0.000 -83.777   0.000   0.000  28.333 144.580
   0.000-198.813-149.792  -0.001  41.661   7.232  -0.083  11.457 -59.161  -0.007

 -56.844 116.666  -0.004 -35.528 -44.963  -0.002 -19.341 192.436   0.006   2.779

 -18.974  -0.000  32.939 -67.394  -0.000 -68.494  50.842  -0.049 -11.231 -85.819

  -0.000 -21.728-121.648  -0.003  26.805 -43.431  -0.000  10.188  31.918   0.000

  14.186 -10.867   0.000 -39.860 -92.627   0.000 -17.752  -2.816   0.001 -22.012

 168.247   0.009 -10.154-169.108  -0.000   3.174 -17.706   0.007 -28.923 -17.187

  -0.000 -28.710 -59.310  -0.020 -30.595 -58.424   0.020 -13.479   9.136   0.001

 -13.723  14.252   0.000  -9.443  -3.074   0.001 -16.771  16.392  -0.000  -9.022

  11.438  -0.000  -5.156   3.769   0.000  -0.230  -2.697  -6.977  -0.220  -2.684

   6.963   1.148   5.038  -0.000  -7.358  -0.800   0.000   0.079   3.224   5.684

   0.065   3.213  -5.667   0.291   3.305   5.328   0.304   3.315  -5.344

          DIAGONAL MATRIX USED AS START HESSIAN

*REMARK   3 HET = Not identified; C 20 H 14 N O 4    =    39 atoms res:    1
 PM7 CHARGE=+1 EF NOXYZ PRNT=2 PDBOUT COMPFG GRAPHF
 24-methyl-5,7,18,20-tetraoxa-24-azoniahexacyclo[11.11.0.02,10.04,8.014,22.017,21]tetracosa-1(24),2,4(8),9,11,13,15,17(21),22-nonaene

  O(HETATM    1  O1  HET A   1)   0.00000000 +1    0.0000000 +1    0.0000000 +1
  O(HETATM    2  O2  HET A   1)   2.22669000 +1    0.0000000 +1    0.0000000 +1     1     0     0
  O(HETATM    3  O3  HET A   1)   9.81544200 +1  126.6012490 +1    0.0000000 +1     1     2     0
  O(HETATM    4  O4  HET A   1)   2.22513900 +1  109.4780960 +1   -0.0023840 +1     3     1     2
  N(HETATM    5  N   HET A   1)   4.31523000 +1  124.4584550 +1   -0.0031520 +1     1     2     3
  C(HETATM    6  C1  HET A   1)   1.40242300 +1  120.3560640 +1    0.0012300 +1     5     1     2
  C(HETATM    7  C2  HET A   1)   1.45138700 +1  117.5087150 +1   -0.0031170 +1     6     5     1
  C(HETATM    8  C3  HET A   1)   1.42810100 +1  120.4495920 +1    0.0018520 +1     7     6     5
  C(HETATM    9  C4  HET A   1)   1.46960100 +1  125.0785780 +1  179.9963540 +1     6     5     1
  C(HETATM   10  C5  HET A   1)   1.40962200 +1  118.3055280 +1   -0.0004170 +1     8     7     6
  C(HETATM   11  C6  HET A   1)   1.44581200 +1  118.6150840 +1  179.9996460 +1     9     6     5
  C(HETATM   12  C7  HET A   1)   4.59737300 +1   31.7480570 +1    0.0038440 +1     2     1     3
  C(HETATM   13  C8  HET A   1)   1.33786500 +1   70.8723260 +1   -0.0044250 +1     1     2     3
  C(HETATM   14  C9  HET A   1)   1.40796500 +1  119.9379400 +1 -179.9988120 +1     7     6     5
  C(HETATM   15  C10 HET A   1)   1.37145600 +1  122.1029790 +1   -0.0010710 +1    14     7     6
  C(HETATM   16  C11 HET A   1)   1.43874000 +1  126.3520830 +1   -0.0014710 +1     9     6     5
  C(HETATM   17  C12 HET A   1)   1.43844500 +1  124.1857420 +1  179.9985600 +1     8     7     6
  C(HETATM   18  C13 HET A   1)   1.33540800 +1   70.5971550 +1    0.0044720 +1     2     1     3
  C(HETATM   19  C14 HET A   1)   1.41402800 +1  122.1314700 +1  179.9988190 +1    11     9     6
  C(HETATM   20  C15 HET A   1)   1.33676600 +1   38.7897970 +1   -0.0072290 +1     3     1     2
  C(HETATM   21  C16 HET A   1)   1.33554000 +1   70.4454040 +1   -0.0032530 +1     4     3     1
  C(HETATM   22  C17 HET A   1)   1.47103800 +1  113.9920230 +1  179.9999350 +1     5     1     2
  C(HETATM   23  C18 HET A   1)   1.38392200 +1  128.4990580 +1 -179.9996490 +1    18     2     1
  C(HETATM   24  C19 HET A   1)   1.39124200 +1   36.8594940 +1 -179.9949360 +1     2     1     3
  C(HETATM   25  C20 HET A   1)   1.39106800 +1   36.9064690 +1  179.9960480 +1     4     3     1
  H(HETATM   26  H7  HET A   1)   1.08590100 +1  120.7582680 +1 -179.9106070 +1    12     5     1
  H(HETATM   27  H9  HET A   1)   1.07432200 +1  123.5445590 +1  179.9994590 +1    14     7     6
  H(HETATM   28  H10 HET A   1)   1.08520000 +1  118.3672110 +1 -179.9994820 +1    15    14     7
  H(HETATM   29  H11 HET A   1)   1.05924100 +1  127.9304910 +1    0.0007270 +1    16     9     6
  H(HETATM   30  H12 HET A   1)   1.07505200 +1  123.6851710 +1    0.0009130 +1    17     8     7
  H(HETATM   31  H14 HET A   1)   1.08402300 +1  122.0862060 +1 -179.9996570 +1    19    11     9
  H(HETATM   32 1H17 HET A   1)   1.11006300 +1  109.8187430 +1  116.5385690 +1    22     5     1
  H(HETATM   33 2H17 HET A   1)   1.11006000 +1  109.8188820 +1 -116.5309550 +1    22     5     1
  H(HETATM   34 3H17 HET A   1)   1.11225700 +1  113.8295900 +1    0.0037400 +1    22     5     1
  H(HETATM   35  H18 HET A   1)   1.08239100 +1  120.8967370 +1   -0.0004150 +1    23    18     2
  H(HETATM   36 1H19 HET A   1)   1.11067400 +1  110.1043110 +1  119.2206410 +1    24     2     1
  H(HETATM   37 2H19 HET A   1)   1.11067300 +1  110.1044870 +1 -119.2206180 +1    24     2     1
  H(HETATM   38 1H20 HET A   1)   1.11070400 +1  110.1192670 +1  119.1992920 +1    25     4     3
  H(HETATM   39 2H20 HET A   1)   1.11070600 +1  110.1189830 +1 -119.1990310 +1    25     4     3

 XPARAM 
  1  1    0.0000  1  2    0.0000  1  3    0.0000  2  1    2.2267  2  2    0.0000
  2  3    0.0000  3  1    9.8154  3  2    2.2096  3  3    0.0000  4  1    2.2251
  4  2    1.9108  4  3    6.2831  5  1    4.3152  5  2    2.1722  5  3    6.2831
  6  1    1.4024  6  2    2.1006  6  3    0.0000  7  1    1.4514  7  2    2.0509
  7  3    6.2831  8  1    1.4281  8  2    2.1022  8  3    0.0000  9  1    1.4696
  9  2    2.1830  9  3    3.1415 10  1    1.4096 10  2    2.0648 10  3    6.2832
 11  1    1.4458 11  2    2.0702 11  3    3.1416 12  1    4.5974 12  2    0.5541
 12  3    0.0001 13  1    1.3379 13  2    1.2370 13  3    6.2831 14  1    1.4080
 14  2    2.0933 14  3    3.1416 15  1    1.3715 15  2    2.1311 15  3    6.2832
 16  1    1.4387 16  2    2.2053 16  3    6.2832 17  1    1.4384 17  2    2.1675
 17  3    3.1416 18  1    1.3354 18  2    1.2322 18  3    0.0001 19  1    1.4140
 19  2    2.1316 19  3    3.1416 20  1    1.3368 20  2    0.6770 20  3    6.2831
 21  1    1.3355 21  2    1.2295 21  3    6.2831 22  1    1.4710 22  2    1.9895
 22  3    3.1416 23  1    1.3839 23  2    2.2427 23  3    3.1416 24  1    1.3912
 24  2    0.6433 24  3    3.1417 25  1    1.3911 25  2    0.6441 25  3    3.1415
 26  1    1.0859 26  2    2.1076 26  3    3.1432 27  1    1.0743 27  2    2.1563
 27  3    3.1416 28  1    1.0852 28  2    2.0659 28  3    3.1416 29  1    1.0592
 29  2    2.2328 29  3    0.0000 30  1    1.0751 30  2    2.1587 30  3    0.0000
 31  1    1.0840 31  2    2.1308 31  3    3.1416 32  1    1.1101 32  2    1.9167
 32  3    2.0340 33  1    1.1101 33  2    1.9167 33  3    4.2493 34  1    1.1123
 34  2    1.9867 34  3    0.0001 35  1    1.0824 35  2    2.1100 35  3    6.2832
 36  1    1.1107 36  2    1.9217 36  3    2.0808 37  1    1.1107 37  2    1.9217
 37  3    4.2024 38  1    1.1107 38  2    1.9219 38  3    2.0804 39  1    1.1107
 39  2    1.9219 39  3    4.2028
 grad
       0.00000    0.00001   -0.00000  -83.77658    0.00000    0.00000   28.33310  144.58048
       0.00000 -198.81294 -149.79221   -0.00063   41.66093    7.23228   -0.08316   11.45733
     -59.16059   -0.00744  -56.84393  116.66552   -0.00385  -35.52780  -44.96338   -0.00222
     -19.34064  192.43567    0.00579    2.77895  -18.97409   -0.00015   32.93915  -67.39380
      -0.00018  -68.49438   50.84204   -0.04940  -11.23134  -85.81867   -0.00040  -21.72816
    -121.64788   -0.00303   26.80473  -43.43094   -0.00021   10.18822   31.91778    0.00046
      14.18566  -10.86655    0.00011  -39.86042  -92.62666    0.00044  -17.75207   -2.81595
       0.00080  -22.01234  168.24696    0.00869  -10.15407 -169.10804   -0.00010    3.17438
     -17.70616    0.00651  -28.92284  -17.18749   -0.00005  -28.71046  -59.31034   -0.02007
     -30.59481  -58.42366    0.01999  -13.47900    9.13647    0.00051  -13.72293   14.25221
       0.00037   -9.44324   -3.07395    0.00052  -16.77146   16.39164   -0.00048   -9.02221
      11.43814   -0.00044   -5.15577    3.76851    0.00045   -0.22989   -2.69737   -6.97700
      -0.22007   -2.68449    6.96281    1.14753    5.03850   -0.00036   -7.35814   -0.80045
       0.00027    0.07878    3.22377    5.68352    0.06546    3.21329   -5.66716    0.29074
       3.30457    5.32766    0.30437    3.31495   -5.34377
 CYCLE:     1 TIME:   0.047 TIME LEFT:  2.00D  GRAD.:   523.226 HEAT:  134.5903

          HESSIAN HAS  0 NEGATIVE EIGENVALUE(S)
  MIN SEARCH, CORRECT HESSIAN, TRYING PURE NR STEP
 LAMBDA THAT MINIMIZES ALONG ALL MODES =        0.000000000
 PURE NR-STEP HAS LENGTH   0.88489
 LAMBDA THAT MINIMIZES ALONG ALL MODES =     -279.706121444
 P-RFO-STEP   HAS LENGTH   0.57772
 LAMBDA THAT MINIMIZES ALONG ALL MODES =    -1859.424911446
 QA/TRIM-STEP HAS LENGTH   0.20000

  HEAT OF FORMATION        1114.4725138913927    
 PARAMETERS       -0.001  -0.015  -0.000   2.255  -0.002  -0.001   9.794   2.190
  -0.002   2.286   1.969   6.283   4.291   2.175   6.283   1.389   2.120   0.000

   1.463   1.993   6.283   1.431   2.115   0.000   1.467   2.094   3.142   1.400

   2.064   6.284   1.425   2.091   3.142   4.618   0.542  -0.001   1.337   1.264

   6.283   1.406   2.137   3.142   1.353   2.140   6.284   1.426   2.183   6.284

   1.424   2.165   3.142   1.343   1.265   0.000   1.411   2.125   3.142   1.342

   0.596   6.283   1.334   1.292   6.283   1.461   1.990   3.142   1.384   2.242

   3.142   1.398   0.661   3.141   1.399   0.661   3.141   1.088   2.101   3.143

   1.076   2.148   3.142   1.086   2.065   3.142   1.062   2.224   0.000   1.075

   2.152   0.000   1.083   2.127   3.142   1.108   1.915   2.037   1.108   1.915

   4.246   1.109   1.982   0.000   1.082   2.107   6.283   1.108   1.918   2.078

   1.108   1.918   4.205   1.108   1.918   2.078   1.108   1.918   4.205
 GRADIENT          0.000   0.000  -0.000 192.481   0.000   0.000****************
   0.000-173.203******** -26.7854020.680******** -94.013 286.761********  35.406

  74.023********   6.488  28.808-415.068   5.6344166.147******** -35.825  58.107

 -66.016   2.410 623.2229355.266  20.192-132.342 322.872-198.766  20.428 132.224

  -0.352  43.077 395.467   0.622 -62.888 190.054   0.322  12.050-320.846   0.460

  -9.370 107.055  -0.025  -1.821 166.511   0.3104060.936******** -20.628 147.535

 342.954   0.1424173.2061374.502 -14.631  -8.311  18.614   0.026  36.982 -47.456

  -0.126 -16.769  12.272   0.015 -19.902  61.201   0.045 -16.865  11.558   3.827

 -13.439  11.487   0.014   9.245 -30.138   0.029  20.013 -35.658  -0.037 -20.545

  26.002   0.075-222.513 152.781   0.594  -4.326  -3.879  -3.366  -4.265  -3.952

   3.471  -1.419   2.780  -0.131  -0.317 -12.710   0.051   1.440   1.994   8.082

   1.455   1.955  -8.070   2.629   3.016   9.339   2.680   2.994  -9.342
       HoF         ACTUAL,  PREDICTED ENERGY CHANGE, RATIO
  1114.4725139   979.8821828         -86.3276523  -11.3507336
 UNACCEPTABLE RATIO, REJECTING STEP, REDUCING DMAX TO 0.1000
  MIN SEARCH, CORRECT HESSIAN, TRYING PURE NR STEP
 LAMBDA THAT MINIMIZES ALONG ALL MODES =        0.000000000
 PURE NR-STEP HAS LENGTH   0.88489
 LAMBDA THAT MINIMIZES ALONG ALL MODES =     -279.706121444
 P-RFO-STEP   HAS LENGTH   0.57772
 LAMBDA THAT MINIMIZES ALONG ALL MODES =    -4312.482419106
 QA/TRIM-STEP HAS LENGTH   0.10000

  HEAT OF FORMATION        325.23470365583489    
 PARAMETERS       -0.001  -0.007  -0.000   2.242  -0.001  -0.000   9.804   2.199
  -0.001   2.258   1.939   6.283   4.302   2.173   6.283   1.395   2.110   0.000

   1.458   2.022   6.283   1.430   2.109   0.000   1.468   2.140   3.142   1.405

   2.064   6.283   1.435   2.081   3.142   4.608   0.548  -0.000   1.337   1.250

   6.283   1.407   2.115   3.142   1.362   2.136   6.283   1.432   2.194   6.283

   1.431   2.166   3.142   1.340   1.248   0.000   1.412   2.129   3.142   1.339

   0.637   6.283   1.335   1.260   6.283   1.466   1.990   3.142   1.384   2.243

   3.142   1.395   0.652   3.142   1.395   0.653   3.141   1.087   2.104   3.143

   1.075   2.152   3.142   1.086   2.065   3.142   1.061   2.228   0.000   1.075

   2.155   0.000   1.084   2.129   3.142   1.109   1.916   2.036   1.109   1.916

   4.248   1.111   1.985   0.000   1.082   2.109   6.283   1.109   1.920   2.080

   1.109   1.920   4.204   1.109   1.920   2.079   1.109   1.920   4.204
 GRADIENT         -0.000   0.000  -0.000  58.482   0.000   0.000-784.376********
   0.000 445.746********  -2.073 786.781********-177.212-539.7566232.184   5.961

 100.513-671.522   3.913   1.730-223.808   3.465 833.640********  -2.745  28.044

 -37.493   1.509-423.8363368.287   2.194 -94.984 175.756-185.321  -0.429  34.618

  -0.224  45.510 344.919   0.374 -61.771 171.095   0.190 -15.843-206.439   0.225

   3.273  52.950  -0.018 -20.101  45.065   0.151 762.370********  -2.036  24.785

 165.531   0.114 832.4151040.732  -1.115  -3.573  -4.719   0.030   6.866 -28.211

  -0.051 -22.915 -21.091  -0.000 -22.754   8.443   0.024 -14.923  10.024   2.500

 -13.562  12.990   0.010   3.848 -20.723   0.026   2.927 -11.739  -0.022 -15.001

  18.694   0.032 -69.758  62.102   0.133  -2.031  -3.320  -5.353  -1.995  -3.355

   5.405  -0.218   3.780  -0.080  -3.962  -6.725   0.029   0.760   2.622   6.913

   0.762   2.598  -6.901   1.589   2.684   7.529   1.626   2.679  -7.541
       HoF         ACTUAL,  PREDICTED ENERGY CHANGE, RATIO
   325.2347037   190.6443726         -46.1884513   -4.1275333
 UNACCEPTABLE RATIO, REJECTING STEP, REDUCING DMAX TO 0.0500
  MIN SEARCH, CORRECT HESSIAN, TRYING PURE NR STEP
 LAMBDA THAT MINIMIZES ALONG ALL MODES =        0.000000000
 PURE NR-STEP HAS LENGTH   0.88489
 LAMBDA THAT MINIMIZES ALONG ALL MODES =     -279.706121444
 P-RFO-STEP   HAS LENGTH   0.57772
 LAMBDA THAT MINIMIZES ALONG ALL MODES =    -9235.527752755
 QA/TRIM-STEP HAS LENGTH   0.05000

  HEAT OF FORMATION        163.18301958720258    
 PARAMETERS       -0.000  -0.004  -0.000   2.234  -0.001  -0.000   9.809   2.204
  -0.000   2.242   1.925   6.283   4.308   2.173   6.283   1.399   2.105   0.000

   1.455   2.037   6.283   1.429   2.105   0.000   1.469   2.162   3.142   1.407

   2.065   6.283   1.440   2.075   3.142   4.603   0.551  -0.000   1.338   1.244

   6.283   1.408   2.104   3.142   1.366   2.133   6.283   1.435   2.200   6.283

   1.434   2.167   3.142   1.338   1.240   0.000   1.413   2.130   3.142   1.338

   0.657   6.283   1.335   1.245   6.283   1.468   1.990   3.142   1.384   2.243

   3.142   1.393   0.648   3.142   1.393   0.648   3.141   1.086   2.106   3.143

   1.075   2.154   3.142   1.085   2.066   3.142   1.060   2.231   0.000   1.075

   2.157   0.000   1.084   2.130   3.142   1.109   1.916   2.035   1.109   1.916

   4.249   1.111   1.986   0.000   1.082   2.109   6.283   1.110   1.921   2.080

   1.110   1.921   4.203   1.110   1.921   2.080   1.110   1.921   4.203
 GRADIENT          0.000   0.000  -0.000 -11.525   0.000   0.000-176.546********
   0.000 117.772-358.657  -0.190 212.0443929.859-142.035-266.1932076.458   2.130

  65.477-385.765   2.270 -15.762-133.171   2.032 222.450********  -0.180  14.774

 -27.037   0.890-209.2581189.228   0.344 -80.268 109.440-142.764  -7.101 -22.428

  -0.127  29.318 214.671   0.176 -39.969 112.355   0.084 -10.939 -97.857   0.087

   9.011  22.302  -0.009 -29.977 -21.341   0.075 181.199-551.136  -0.216 -13.185

 140.258   0.057 196.741 339.957  -0.089  -0.432 -12.229   0.024 -10.060 -21.671

  -0.022 -25.806 -39.616  -0.009 -26.340 -23.029   0.021 -14.170   9.511   1.520

 -13.639  13.651   0.005  -1.355 -13.269   0.018  -6.465   1.822  -0.014 -12.026

  15.026   0.014 -30.363  29.165   0.041  -1.101  -3.018  -6.241  -1.077  -3.031

   6.264   0.441   4.391  -0.046  -5.712  -3.729   0.016   0.419   2.920   6.311

   0.413   2.903  -6.298   0.955   2.963   6.463   0.981   2.966  -6.477
       HoF         ACTUAL,  PREDICTED ENERGY CHANGE, RATIO
   163.1830196    28.5926885         -23.8654033   -1.1980811
 UNACCEPTABLE RATIO, REJECTING STEP, REDUCING DMAX TO 0.0250
  MIN SEARCH, CORRECT HESSIAN, TRYING PURE NR STEP
 LAMBDA THAT MINIMIZES ALONG ALL MODES =        0.000000000
 PURE NR-STEP HAS LENGTH   0.88489
 LAMBDA THAT MINIMIZES ALONG ALL MODES =     -279.706121444
 P-RFO-STEP   HAS LENGTH   0.57772
 LAMBDA THAT MINIMIZES ALONG ALL MODES =   -19091.186761833
 QA/TRIM-STEP HAS LENGTH   0.02500

  HEAT OF FORMATION        134.84249606708181    
 PARAMETERS       -0.000  -0.002  -0.000   2.231  -0.000  -0.000   9.812   2.207
  -0.000   2.234   1.918   6.283   4.312   2.172   6.283   1.400   2.103   0.000

   1.453   2.044   6.283   1.428   2.104   0.000   1.469   2.172   3.142   1.408

   2.065   6.283   1.443   2.073   3.142   4.600   0.553  -0.000   1.338   1.240

   6.283   1.408   2.099   3.142   1.369   2.132   6.283   1.437   2.203   6.283

   1.436   2.167   3.142   1.337   1.236   0.000   1.414   2.131   3.142   1.337

   0.667   6.283   1.335   1.237   6.283   1.470   1.990   3.142   1.384   2.243

   3.142   1.392   0.645   3.142   1.392   0.646   3.141   1.086   2.107   3.143

   1.075   2.155   3.142   1.085   2.066   3.142   1.060   2.232   0.000   1.075

   2.158   0.000   1.084   2.130   3.142   1.110   1.917   2.034   1.110   1.917

   4.249   1.112   1.986   0.000   1.082   2.110   6.283   1.110   1.921   2.081

   1.110   1.921   4.203   1.110   1.921   2.080   1.110   1.921   4.203
 GRADIENT          0.000   0.000  -0.000 -47.455   0.000   0.000 -37.851********
   0.000 -47.580-184.170  -0.009  90.7661616.045 -92.767-119.869 787.780   1.024

  18.718-170.907   1.246 -25.458 -88.886   1.125  72.698-755.228   0.037   8.642

 -22.775   0.494 -84.943 467.432   0.070 -74.003  78.301 -92.789  -9.495 -53.322

  -0.068   9.664  81.029   0.074 -14.322  50.691   0.033  -2.667 -35.287   0.035

  11.697   6.032  -0.004 -34.942 -56.344   0.038  50.227-230.623  -0.009 -21.837

 146.708   0.031  54.630  58.542   0.003   1.318 -15.196   0.017 -19.219 -19.172

  -0.010 -27.252 -49.321  -0.014 -28.426 -40.163   0.020 -13.821   9.308   0.858

 -13.690  13.960   0.003  -4.982  -8.568   0.011 -11.515   8.971  -0.008 -10.522

  13.219   0.006 -16.117  15.570   0.016  -0.660  -2.860  -6.626  -0.643  -2.861

   6.633   0.789   4.709  -0.026  -6.552  -2.254   0.008   0.248   3.071   6.001

   0.239   3.057  -5.987   0.628   3.127   5.899   0.648   3.134  -5.914
       HoF         ACTUAL,  PREDICTED ENERGY CHANGE, RATIO
   134.8424961     0.2521650         -12.1275490   -0.0207927
 UNACCEPTABLE RATIO, REJECTING STEP, REDUCING DMAX TO 0.0125
  MIN SEARCH, CORRECT HESSIAN, TRYING PURE NR STEP
 LAMBDA THAT MINIMIZES ALONG ALL MODES =        0.000000000
 PURE NR-STEP HAS LENGTH   0.88489
 LAMBDA THAT MINIMIZES ALONG ALL MODES =     -279.706121444
 P-RFO-STEP   HAS LENGTH   0.57772
 LAMBDA THAT MINIMIZES ALONG ALL MODES =   -38807.575206705
 QA/TRIM-STEP HAS LENGTH   0.01250

  HEAT OF FORMATION        131.49257469763688    
 PARAMETERS       -0.000  -0.001  -0.000   2.229  -0.000  -0.000   9.814   2.208
  -0.000   2.229   1.914   6.283   4.313   2.172   6.283   1.401   2.102   0.000

   1.452   2.047   6.283   1.428   2.103   0.000   1.469   2.178   3.142   1.409

   2.065   6.283   1.444   2.072   3.142   4.599   0.553   0.000   1.338   1.239

   6.283   1.408   2.096   3.142   1.370   2.132   6.283   1.438   2.204   6.283

   1.437   2.167   3.142   1.336   1.234   0.000   1.414   2.131   3.142   1.337

   0.672   6.283   1.335   1.233   6.283   1.470   1.990   3.142   1.384   2.243

   3.142   1.392   0.644   3.142   1.392   0.645   3.142   1.086   2.107   3.143

   1.074   2.156   3.142   1.085   2.066   3.142   1.059   2.232   0.000   1.075

   2.158   0.000   1.084   2.131   3.142   1.110   1.917   2.034   1.110   1.917

   4.249   1.112   1.986   0.000   1.082   2.110   6.283   1.110   1.921   2.081

   1.111   1.921   4.203   1.111   1.922   2.080   1.111   1.922   4.203
 GRADIENT          0.000   0.000  -0.000 -65.567   0.000   0.000   3.215-575.286
   0.000-125.423-152.789   0.007  58.446 728.949 -54.240 -52.043 313.185   0.514

 -14.971 -38.271   0.655 -30.548 -67.258   0.595  21.042-256.073   0.039   5.691

 -21.000   0.262 -24.891 179.715   0.015 -71.263  63.837 -54.180 -10.471 -69.516

  -0.036  -4.213 -10.070   0.031   3.851   8.447   0.013   2.846  -2.505   0.016

  13.026  -2.268  -0.001 -37.315 -74.452   0.019   9.590-105.491   0.012 -23.008

 156.077   0.020  14.039 -62.158   0.008   2.243 -16.510   0.013 -23.900 -18.060

  -0.005 -27.986 -54.276  -0.017 -29.504 -49.171   0.020 -13.647   9.214   0.463

 -13.704  14.100   0.002  -7.107  -5.928   0.006 -14.101  12.648  -0.005  -9.776

  12.321   0.003 -10.227   9.439   0.007  -0.446  -2.778  -6.810  -0.433  -2.772

   6.807   0.968   4.873  -0.014  -6.956  -1.523   0.005   0.163   3.148   5.843

   0.151   3.135  -5.828   0.458   3.212   5.617   0.475   3.220  -5.633
       HoF         ACTUAL,  PREDICTED ENERGY CHANGE, RATIO
   131.4925747    -3.0977564          -6.1127542    0.5067693
     STEPSIZE USED IS  0.01250
 CALCULATED STEP
    -0.000113 -0.000870 -0.000025  0.001991 -0.000135 -0.000057 -0.001546 -0.001307
    -0.000094  0.004349  0.003462  0.000008 -0.001730  0.000135 -0.000011 -0.000980
     0.001152  0.000023  0.000829 -0.003492  0.000021  0.000200  0.000799  0.000023
    -0.000190 -0.005322  0.000024 -0.000673 -0.000053  0.000022 -0.001471  0.001282
     0.000022  0.001466 -0.000732 -0.000062 -0.000087  0.001627 -0.000002 -0.000104
     0.002651  0.000023 -0.001295  0.000558  0.000024 -0.000898 -0.001339  0.000026
    -0.001028 -0.000158  0.000025  0.000555  0.001985 -0.000002 -0.000215 -0.000370
     0.000024  0.000342 -0.004837 -0.000019 -0.000112  0.003745 -0.000002 -0.000701
     0.000025  0.000019  0.000034 -0.000013  0.000028  0.000481  0.001061 -0.000020
     0.000528  0.001038 -0.000021  0.000149 -0.000388  0.000008  0.000151 -0.000519
     0.000008  0.000051 -0.000077  0.000008  0.000210 -0.000548  0.000009  0.000022
    -0.000420  0.000008 -0.000062 -0.000251  0.000008 -0.000172 -0.000075  0.000185
    -0.000164 -0.000094 -0.000172 -0.000220 -0.000254  0.000007  0.000007 -0.000162
     0.000008 -0.000180 -0.000226 -0.000139 -0.000172 -0.000244  0.000152 -0.000185
    -0.000228 -0.000130 -0.000178 -0.000246  0.000143
     NEW TRUST RADIUS =  0.01768

     HESSIAN IS BEING UPDATED USING THE BFGS UPDATE

*REMARK   3 HET = Not identified; C 20 H 14 N O 4    =    39 atoms res:    1
 PM7 CHARGE=+1 EF NOXYZ PRNT=2 PDBOUT COMPFG GRAPHF
 24-methyl-5,7,18,20-tetraoxa-24-azoniahexacyclo[11.11.0.02,10.04,8.014,22.017,21]tetracosa-1(24),2,4(8),9,11,13,15,17(21),22-nonaene

  O(HETATM    1  O1  HET A   1)  -0.00011344 +1   -0.0008700 +1   -0.0000246 +1
  O(HETATM    2  O2  HET A   1)   2.22868110 +1   -0.0077252 +1   -0.0032926 +1     1     0     0
  O(HETATM    3  O3  HET A   1)   9.81389640 +1  126.5263436 +1   -0.0053762 +1     1     2     0
  O(HETATM    4  O4  HET A   1)   2.22948781 +1  109.6764530 +1   -0.0019267 +1     3     1     2
  N(HETATM    5  N   HET A   1)   4.31349968 +1  124.4662110 +1   -0.0037768 +1     1     2     3
  C(HETATM    6  C1  HET A   1)   1.40144350 +1  120.4220938 +1    0.0025618 +1     5     1     2
  C(HETATM    7  C2  HET A   1)   1.45221605 +1  117.3086624 +1   -0.0019108 +1     6     5     1
  C(HETATM    8  C3  HET A   1)   1.42830134 +1  120.4953484 +1    0.0031601 +1     7     6     5
  C(HETATM    9  C4  HET A   1)   1.46941125 +1  124.7736775 +1  179.9977572 +1     6     5     1
  C(HETATM   10  C5  HET A   1)   1.40894935 +1  118.3025027 +1    0.0008380 +1     8     7     6
  C(HETATM   11  C6  HET A   1)   1.44434081 +1  118.6885279 +1 -179.9991163 +1     9     6     5
  C(HETATM   12  C7  HET A   1)   4.59883882 +1   31.7061133 +1    0.0002683 +1     2     1     3
  C(HETATM   13  C8  HET A   1)   1.33777816 +1   70.9655591 +1   -0.0045239 +1     1     2     3
  C(HETATM   14  C9  HET A   1)   1.40786057 +1  120.0898457 +1 -179.9975031 +1     7     6     5
  C(HETATM   15  C10 HET A   1)   1.37016108 +1  122.1349771 +1    0.0003247 +1    14     7     6
  C(HETATM   16  C11 HET A   1)   1.43784155 +1  126.2753536 +1    0.0000004 +1     9     6     5
  C(HETATM   17  C12 HET A   1)   1.43741744 +1  124.1766695 +1  179.9999679 +1     8     7     6
  C(HETATM   18  C13 HET A   1)   1.33596297 +1   70.7108673 +1    0.0043655 +1     2     1     3
  C(HETATM   19  C14 HET A   1)   1.41381288 +1  122.1102625 +1 -179.9998171 +1    11     9     6
  C(HETATM   20  C15 HET A   1)   1.33710817 +1   38.5126792 +1   -0.0082921 +1     3     1     2
  C(HETATM   21  C16 HET A   1)   1.33542821 +1   70.6600037 +1   -0.0033633 +1     4     3     1
  C(HETATM   22  C17 HET A   1)   1.47033732 +1  113.9934543 +1 -179.9989927 +1     5     1     2
  C(HETATM   23  C18 HET A   1)   1.38395610 +1  128.4983053 +1 -179.9980730 +1    18     2     1
  C(HETATM   24  C19 HET A   1)   1.39172258 +1   36.9202606 +1 -179.9960540 +1     2     1     3
  C(HETATM   25  C20 HET A   1)   1.39159569 +1   36.9659405 +1  179.9948727 +1     4     3     1
  H(HETATM   26  H7  HET A   1)   1.08605007 +1  120.7360592 +1 -179.9101545 +1    12     5     1
  H(HETATM   27  H9  HET A   1)   1.07447321 +1  123.5148392 +1  179.9999381 +1    14     7     6
  H(HETATM   28  H10 HET A   1)   1.08525110 +1  118.3627979 +1 -179.9990499 +1    15    14     7
  H(HETATM   29  H11 HET A   1)   1.05945113 +1  127.8991158 +1    0.0012483 +1    16     9     6
  H(HETATM   30  H12 HET A   1)   1.07507352 +1  123.6610912 +1    0.0013944 +1    17     8     7
  H(HETATM   31  H14 HET A   1)   1.08396108 +1  122.0718135 +1 -179.9991926 +1    19    11     9
  H(HETATM   32 1H17 HET A   1)   1.10989084 +1  109.8144401 +1  116.5491712 +1    22     5     1
  H(HETATM   33 2H17 HET A   1)   1.10989564 +1  109.8134781 +1 -116.5408281 +1    22     5     1
  H(HETATM   34 3H17 HET A   1)   1.11203713 +1  113.8150152 +1    0.0041287 +1    22     5     1
  H(HETATM   35  H18 HET A   1)   1.08239751 +1  120.8874619 +1    0.0000398 +1    23    18     2
  H(HETATM   36 1H19 HET A   1)   1.11049385 +1  110.0913574 +1  119.2126493 +1    24     2     1
  H(HETATM   37 2H19 HET A   1)   1.11050088 +1  110.0905122 +1 -119.2119374 +1    24     2     1
  H(HETATM   38 1H20 HET A   1)   1.11051850 +1  110.1061959 +1  119.1918231 +1    25     4     3
  H(HETATM   39 2H20 HET A   1)   1.11052786 +1  110.1048599 +1 -119.1908253 +1    25     4     3

 XPARAM 
  1  1   -0.0001  1  2   -0.0009  1  3   -0.0000  2  1    2.2287  2  2   -0.0001
  2  3   -0.0001  3  1    9.8139  3  2    2.2083  3  3   -0.0001  4  1    2.2295
  4  2    1.9142  4  3    6.2832  5  1    4.3135  5  2    2.1723  5  3    6.2831
  6  1    1.4014  6  2    2.1018  6  3    0.0000  7  1    1.4522  7  2    2.0474
  7  3    6.2832  8  1    1.4283  8  2    2.1030  8  3    0.0001  9  1    1.4694
  9  2    2.1777  9  3    3.1416 10  1    1.4089 10  2    2.0648 10  3    6.2832
 11  1    1.4443 11  2    2.0715 11  3    3.1416 12  1    4.5988 12  2    0.5534
 12  3    0.0000 13  1    1.3378 13  2    1.2386 13  3    6.2831 14  1    1.4079
 14  2    2.0960 14  3    3.1416 15  1    1.3702 15  2    2.1317 15  3    6.2832
 16  1    1.4378 16  2    2.2039 16  3    6.2832 17  1    1.4374 17  2    2.1673
 17  3    3.1416 18  1    1.3360 18  2    1.2341 18  3    0.0001 19  1    1.4138
 19  2    2.1312 19  3    3.1416 20  1    1.3371 20  2    0.6722 20  3    6.2830
 21  1    1.3354 21  2    1.2332 21  3    6.2831 22  1    1.4703 22  2    1.9896
 22  3    3.1416 23  1    1.3840 23  2    2.2427 23  3    3.1416 24  1    1.3917
 24  2    0.6444 24  3    3.1417 25  1    1.3916 25  2    0.6452 25  3    3.1415
 26  1    1.0861 26  2    2.1072 26  3    3.1432 27  1    1.0745 27  2    2.1557
 27  3    3.1416 28  1    1.0853 28  2    2.0658 28  3    3.1416 29  1    1.0595
 29  2    2.2323 29  3    0.0000 30  1    1.0751 30  2    2.1583 30  3    0.0000
 31  1    1.0840 31  2    2.1306 31  3    3.1416 32  1    1.1099 32  2    1.9166
 32  3    2.0342 33  1    1.1099 33  2    1.9166 33  3    4.2492 34  1    1.1120
 34  2    1.9864 34  3    0.0001 35  1    1.0824 35  2    2.1099 35  3    6.2832
 36  1    1.1105 36  2    1.9215 36  3    2.0807 37  1    1.1105 37  2    1.9214
 37  3    4.2025 38  1    1.1105 38  2    1.9217 38  3    2.0803 39  1    1.1105
 39  2    1.9217 39  3    4.2029
 grad
       0.00000    0.00001   -0.00000  -65.56651    0.00000    0.00000    3.21528 -575.28575
       0.00000 -125.42274 -152.78872    0.00730   58.44554  728.94871  -54.23957  -52.04269
     313.18463    0.51360  -14.97111  -38.27103    0.65518  -30.54786  -67.25849    0.59465
      21.04241 -256.07259    0.03926    5.69050  -21.00016    0.26184  -24.89119  179.71513
       0.01540  -71.26255   63.83661  -54.17975  -10.47124  -69.51551   -0.03561   -4.21336
     -10.07020    0.03094    3.85122    8.44727    0.01292    2.84621   -2.50511    0.01563
      13.02623   -2.26846   -0.00134  -37.31509  -74.45187    0.01933    9.58999 -105.49109
       0.01222  -23.00813  156.07663    0.01953   14.03895  -62.15829    0.00810    2.24339
     -16.51024    0.01267  -23.90009  -18.06049   -0.00466  -27.98593  -54.27592   -0.01701
     -29.50358  -49.17131    0.01978  -13.64656    9.21377    0.46274  -13.70431   14.09987
       0.00180   -7.10710   -5.92847    0.00620  -14.10131   12.64769   -0.00458   -9.77595
      12.32132    0.00254  -10.22662    9.43865    0.00690   -0.44613   -2.77801   -6.81013
      -0.43282   -2.77240    6.80679    0.96828    4.87289   -0.01371   -6.95625   -1.52260
       0.00454    0.16259    3.14758    5.84317    0.15105    3.13521   -5.82773    0.45836
       3.21165    5.61698    0.47535    3.22011   -5.63274
 CYCLE:     2 TIME:   0.117 TIME LEFT:  2.00D  GRAD.:  1092.718 HEAT:  131.4926

          HESSIAN HAS  0 NEGATIVE EIGENVALUE(S)
  MIN SEARCH, CORRECT HESSIAN, TRYING PURE NR STEP
 LAMBDA THAT MINIMIZES ALONG ALL MODES =        0.000000000
 PURE NR-STEP HAS LENGTH   4.74127
 LAMBDA THAT MINIMIZES ALONG ALL MODES =     -401.156281407
 P-RFO-STEP   HAS LENGTH   0.89545
 LAMBDA THAT MINIMIZES ALONG ALL MODES =   -25642.781170370
 QA/TRIM-STEP HAS LENGTH   0.01768

  HEAT OF FORMATION        129.81800616541295    
 PARAMETERS       -0.001  -0.002   0.000   2.231  -0.001   0.000   9.812   2.210
  -0.000   2.236   1.920   6.283   4.311   2.164   6.284   1.401   2.099  -0.000

   1.453   2.044   6.283   1.429   2.104  -0.000   1.469   2.175   3.141   1.408

   2.065   6.283   1.443   2.071   3.142   4.601   0.551   0.001   1.338   1.242

   6.283   1.408   2.099   3.142   1.369   2.133   6.283   1.437   2.203   6.283

   1.436   2.167   3.142   1.337   1.237   0.000   1.413   2.132   3.142   1.337

   0.666   6.283   1.335   1.239   6.283   1.469   1.990   3.142   1.384   2.243

   3.142   1.392   0.646   3.142   1.392   0.647   3.142   1.086   2.107   3.143

   1.075   2.155   3.142   1.085   2.066   3.142   1.060   2.231  -0.000   1.075

   2.158   0.000   1.084   2.130   3.142   1.110   1.917   2.034   1.110   1.917

   4.249   1.112   1.986   0.000   1.082   2.110   6.283   1.110   1.921   2.080

   1.110   1.921   4.203   1.110   1.921   2.080   1.110   1.921   4.203
 GRADIENT          0.000   0.000  -0.000-110.389   0.000   0.000  70.374 651.511
   0.000-132.762  15.148  -0.794 -95.282-832.090  87.815  -8.757-602.579  -0.761

  80.509-194.403  -1.793  64.289 -53.105  -1.662 -19.283 216.622  -1.405  -1.242

  36.070  -0.706  25.277-100.963   0.412 -49.436 -82.336  83.499  -0.018 -25.907

   0.010   4.274  55.817  -0.039  -7.414  39.481   0.004   0.821  39.238  -0.175

  34.334  73.190  -0.085  21.427-133.756   0.111 -33.416  48.154  -0.546 -46.072

  54.201  -0.165 -60.901-116.397  -0.539  -1.328 -20.845   0.018   0.563  48.668

  -0.051 -27.156 -46.344  -0.028 -27.460 -34.310  -0.006 -10.173   4.756  -1.900

 -13.647  14.065  -0.002  -5.289  -8.174  -0.016 -18.499  19.101   0.100 -13.830

  16.441   0.016  -3.081   3.309  -0.085  -0.693  -3.099  -6.809  -0.667  -3.049

   6.738   0.658   4.027   0.075  -9.422   0.922   0.019   0.330   3.031   6.095

   0.339   3.024  -6.075   0.671   3.085   6.127   0.698   3.103  -6.145
       HoF         ACTUAL,  PREDICTED ENERGY CHANGE, RATIO
   129.8180062    -1.6745685          -9.6565978    0.1734119
     STEPSIZE USED IS  0.01768
 CALCULATED STEP
    -0.000840 -0.000930  0.000203  0.002204 -0.000775  0.000130 -0.001838  0.001801
    -0.000374  0.006128  0.005789 -0.000093 -0.002534 -0.007877  0.000408 -0.000644
    -0.002388 -0.000081  0.001071 -0.002974 -0.000079  0.000455  0.001262 -0.000083
    -0.000457 -0.003102 -0.000086 -0.000826  0.000660 -0.000075 -0.001444 -0.000421
    -0.000074  0.001910 -0.002640  0.000574 -0.000208  0.003055  0.000013 -0.000121
     0.003124 -0.000076 -0.001488  0.001033 -0.000078 -0.001014 -0.000969 -0.000087
    -0.001318 -0.000078 -0.000083  0.000704  0.002676  0.000013 -0.000380  0.000793
    -0.000079  0.000263 -0.006502  0.000069 -0.000494  0.005323  0.000013 -0.000883
     0.000269 -0.000067  0.000278  0.000265 -0.000090  0.000418  0.001838  0.000072
     0.000487  0.001758  0.000070  0.000297 -0.000480 -0.000025  0.000303 -0.000676
    -0.000021  0.000116  0.000025 -0.000018  0.000367 -0.000811 -0.000023  0.000105
    -0.000668 -0.000021  0.000026 -0.000331 -0.000020 -0.000220 -0.000050  0.000256
    -0.000202  0.000013 -0.000284 -0.000291 -0.000408 -0.000016  0.000080  0.000005
    -0.000020 -0.000234 -0.000279 -0.000237 -0.000217 -0.000217  0.000208 -0.000243
    -0.000282 -0.000225 -0.000227 -0.000221  0.000197
     NEW TRUST RADIUS =  0.01768
*REMARK   3 HET = Not identified; C 20 H 14 N O 4    =    39 atoms res:    1
 PM7 CHARGE=+1 EF NOXYZ PRNT=2 PDBOUT COMPFG GRAPHF
 24-methyl-5,7,18,20-tetraoxa-24-azoniahexacyclo[11.11.0.02,10.04,8.014,22.017,21]tetracosa-1(24),2,4(8),9,11,13,15,17(21),22-nonaene

  O(HETATM    1  O1  HET A   1)  -0.00095378 +1   -0.0018003 +1    0.0001780 +1
  O(HETATM    2  O2  HET A   1)   2.23088556 +1   -0.0521457 +1    0.0041469 +1     1     0     0
  O(HETATM    3  O3  HET A   1)   9.81205820 +1  126.6295414 +1   -0.0268110 +1     1     2     0
  O(HETATM    4  O4  HET A   1)   2.23561607 +1  110.0081554 +1   -0.0072447 +1     3     1     2
  N(HETATM    5  N   HET A   1)   4.31096537 +1  124.0148930 +1    0.0195874 +1     1     2     3
  C(HETATM    6  C1  HET A   1)   1.40079908 +1  120.2852927 +1   -0.0020905 +1     5     1     2
  C(HETATM    7  C2  HET A   1)   1.45328710 +1  117.1382478 +1   -0.0064246 +1     6     5     1
  C(HETATM    8  C3  HET A   1)   1.42875613 +1  120.5676723 +1   -0.0016015 +1     7     6     5
  C(HETATM    9  C4  HET A   1)   1.46895379 +1  124.5959674 +1  179.9928280 +1     6     5     1
  C(HETATM   10  C5  HET A   1)   1.40812381 +1  118.3403228 +1   -0.0034694 +1     8     7     6
  C(HETATM   11  C6  HET A   1)   1.44289705 +1  118.6643906 +1  179.9966322 +1     9     6     5
  C(HETATM   12  C7  HET A   1)   4.60074839 +1   31.5548340 +1    0.0331802 +1     2     1     3
  C(HETATM   13  C8  HET A   1)   1.33756990 +1   71.1405937 +1   -0.0037638 +1     1     2     3
  C(HETATM   14  C9  HET A   1)   1.40773949 +1  120.2688515 +1  179.9981581 +1     7     6     5
  C(HETATM   15  C10 HET A   1)   1.36867351 +1  122.1941818 +1   -0.0041524 +1    14     7     6
  C(HETATM   16  C11 HET A   1)   1.43682788 +1  126.2198616 +1   -0.0050060 +1     9     6     5
  C(HETATM   17  C12 HET A   1)   1.43609988 +1  124.1722275 +1  179.9951846 +1     8     7     6
  C(HETATM   18  C13 HET A   1)   1.33666708 +1   70.8641832 +1    0.0051189 +1     2     1     3
  C(HETATM   19  C14 HET A   1)   1.41343332 +1  122.1556777 +1  179.9956364 +1    11     9     6
  C(HETATM   20  C15 HET A   1)   1.33737135 +1   38.1401294 +1   -0.0043102 +1     3     1     2
  C(HETATM   21  C16 HET A   1)   1.33493405 +1   70.9649681 +1   -0.0025962 +1     4     3     1
  C(HETATM   22  C17 HET A   1)   1.46945413 +1  114.0088475 +1  179.9971776 +1     5     1     2
  C(HETATM   23  C18 HET A   1)   1.38423368 +1  128.5135082 +1  179.9967972 +1    18     2     1
  C(HETATM   24  C19 HET A   1)   1.39214094 +1   37.0255532 +1 -179.9919313 +1     2     1     3
  C(HETATM   25  C20 HET A   1)   1.39208292 +1   37.0666886 +1  179.9989037 +1     4     3     1
  H(HETATM   26  H7  HET A   1)   1.08634695 +1  120.7085795 +1 -179.9115615 +1    12     5     1
  H(HETATM   27  H9  HET A   1)   1.07477664 +1  123.4761099 +1  179.9987400 +1    14     7     6
  H(HETATM   28  H10 HET A   1)   1.08536676 +1  118.3642534 +1  179.9998943 +1    15    14     7
  H(HETATM   29  H11 HET A   1)   1.05981782 +1  127.8526318 +1   -0.0000655 +1    16     9     6
  H(HETATM   30  H12 HET A   1)   1.07517813 +1  123.6228164 +1    0.0001926 +1    17     8     7
  H(HETATM   31  H14 HET A   1)   1.08398731 +1  122.0528556 +1  179.9996437 +1    19    11     9
  H(HETATM   32 1H17 HET A   1)   1.10967128 +1  109.8115685 +1  116.5638146 +1    22     5     1
  H(HETATM   33 2H17 HET A   1)   1.10969351 +1  109.8142290 +1 -116.5570730 +1    22     5     1
  H(HETATM   34 3H17 HET A   1)   1.11174628 +1  113.7916471 +1    0.0032067 +1    22     5     1
  H(HETATM   35  H18 HET A   1)   1.08247734 +1  120.8877314 +1   -0.0010869 +1    23    18     2
  H(HETATM   36 1H19 HET A   1)   1.11025952 +1  110.0753939 +1  119.1990543 +1    24     2     1
  H(HETATM   37 2H19 HET A   1)   1.11028415 +1  110.0780667 +1 -119.2000215 +1    24     2     1
  H(HETATM   38 1H20 HET A   1)   1.11027510 +1  110.0900624 +1  119.1789414 +1    25     4     3
  H(HETATM   39 2H20 HET A   1)   1.11030101 +1  110.0921992 +1 -119.1795518 +1    25     4     3

 XPARAM 
  1  1   -0.0010  1  2   -0.0018  1  3    0.0002  2  1    2.2309  2  2   -0.0009
  2  3    0.0001  3  1    9.8121  3  2    2.2101  3  3   -0.0005  4  1    2.2356
  4  2    1.9200  4  3    6.2831  5  1    4.3110  5  2    2.1645  5  3    6.2835
  6  1    1.4008  6  2    2.0994  6  3   -0.0000  7  1    1.4533  7  2    2.0444
  7  3    6.2831  8  1    1.4288  8  2    2.1043  8  3   -0.0000  9  1    1.4690
  9  2    2.1746  9  3    3.1415 10  1    1.4081 10  2    2.0654 10  3    6.2831
 11  1    1.4429 11  2    2.0711 11  3    3.1415 12  1    4.6007 12  2    0.5507
 12  3    0.0006 13  1    1.3376 13  2    1.2416 13  3    6.2831 14  1    1.4077
 14  2    2.0991 14  3    3.1416 15  1    1.3687 15  2    2.1327 15  3    6.2831
 16  1    1.4368 16  2    2.2030 16  3    6.2831 17  1    1.4361 17  2    2.1672
 17  3    3.1415 18  1    1.3367 18  2    1.2368 18  3    0.0001 19  1    1.4134
 19  2    2.1320 19  3    3.1415 20  1    1.3374 20  2    0.6657 20  3    6.2831
 21  1    1.3349 21  2    1.2386 21  3    6.2831 22  1    1.4695 22  2    1.9898
 22  3    3.1415 23  1    1.3842 23  2    2.2430 23  3    3.1415 24  1    1.3921
 24  2    0.6462 24  3    3.1417 25  1    1.3921 25  2    0.6469 25  3    3.1416
 26  1    1.0863 26  2    2.1068 26  3    3.1431 27  1    1.0748 27  2    2.1551
 27  3    3.1416 28  1    1.0854 28  2    2.0658 28  3    3.1416 29  1    1.0598
 29  2    2.2314 29  3   -0.0000 30  1    1.0752 30  2    2.1576 30  3    0.0000
 31  1    1.0840 31  2    2.1302 31  3    3.1416 32  1    1.1097 32  2    1.9166
 32  3    2.0344 33  1    1.1097 33  2    1.9166 33  3    4.2489 34  1    1.1117
 34  2    1.9860 34  3    0.0001 35  1    1.0825 35  2    2.1099 35  3    6.2832
 36  1    1.1103 36  2    1.9212 36  3    2.0804 37  1    1.1103 37  2    1.9212
 37  3    4.2028 38  1    1.1103 38  2    1.9214 38  3    2.0801 39  1    1.1103
 39  2    1.9215 39  3    4.2031
 grad
       0.00001    0.00001   -0.00000 -110.38884    0.00000    0.00000   70.37372  651.51081
       0.00000 -132.76200   15.14786   -0.79431  -95.28173 -832.09020   87.81493   -8.75742
    -602.57883   -0.76125   80.50874 -194.40311   -1.79255   64.28876  -53.10492   -1.66242
     -19.28291  216.62219   -1.40541   -1.24205   36.07024   -0.70565   25.27674 -100.96343
       0.41230  -49.43592  -82.33585   83.49897   -0.01753  -25.90736    0.01046    4.27358
      55.81714   -0.03886   -7.41425   39.48076    0.00367    0.82094   39.23760   -0.17489
      34.33353   73.18958   -0.08536   21.42689 -133.75575    0.11117  -33.41552   48.15351
      -0.54551  -46.07192   54.20052   -0.16531  -60.90116 -116.39676   -0.53923   -1.32838
     -20.84530    0.01754    0.56270   48.66769   -0.05137  -27.15622  -46.34398   -0.02837
     -27.45951  -34.30988   -0.00568  -10.17329    4.75585   -1.89972  -13.64675   14.06548
      -0.00199   -5.28936   -8.17353   -0.01618  -18.49893   19.10097    0.10031  -13.83005
      16.44117    0.01555   -3.08051    3.30875   -0.08474   -0.69257   -3.09883   -6.80876
      -0.66701   -3.04903    6.73795    0.65778    4.02735    0.07505   -9.42236    0.92162
       0.01898    0.32966    3.03126    6.09451    0.33852    3.02431   -6.07461    0.67072
       3.08469    6.12703    0.69763    3.10287   -6.14548
 CYCLE:     3 TIME:   0.023 TIME LEFT:  2.00D  GRAD.:  1313.807 HEAT:  129.8180

          HESSIAN HAS  0 NEGATIVE EIGENVALUE(S)
  MIN SEARCH, CORRECT HESSIAN, TRYING PURE NR STEP
 LAMBDA THAT MINIMIZES ALONG ALL MODES =        0.000000000
 PURE NR-STEP HAS LENGTH   0.94167
 LAMBDA THAT MINIMIZES ALONG ALL MODES =     -184.551076562
 P-RFO-STEP   HAS LENGTH   0.58946
 LAMBDA THAT MINIMIZES ALONG ALL MODES =   -17821.682991448
 QA/TRIM-STEP HAS LENGTH   0.01768

  HEAT OF FORMATION        124.89319866077858    
 PARAMETERS       -0.002  -0.003   0.000   2.235  -0.002   0.000   9.809   2.208
  -0.000   2.242   1.923   6.283   4.311   2.165   6.283   1.402   2.105  -0.000

   1.451   2.050   6.283   1.427   2.106  -0.000   1.468   2.175   3.141   1.407

   2.064   6.283   1.442   2.068   3.142   4.603   0.550   0.000   1.337   1.243

   6.283   1.407   2.097   3.142   1.368   2.131   6.283   1.436   2.201   6.283

   1.434   2.164   3.141   1.336   1.241   0.000   1.413   2.133   3.142   1.338

   0.659   6.283   1.335   1.243   6.283   1.469   1.990   3.142   1.384   2.241

   3.142   1.393   0.648   3.142   1.393   0.648   3.142   1.087   2.106   3.143

   1.075   2.154   3.142   1.085   2.066   3.142   1.060   2.230  -0.000   1.076

   2.156  -0.000   1.084   2.130   3.142   1.109   1.916   2.035   1.109   1.916

   4.249   1.111   1.985   0.000   1.083   2.110   6.283   1.110   1.921   2.080

   1.110   1.921   4.203   1.110   1.921   2.080   1.110   1.921   4.203
 GRADIENT          0.000   0.000  -0.000 -81.684   0.000   0.000  38.905  47.823
   0.000 -71.781  10.403   0.477  29.596 -33.093 -34.842  30.328 125.487  -0.307

  33.075 190.694  -0.040 -33.778 109.382   0.100 -12.383  32.043   0.981 -28.049

  38.754   0.057   4.496   6.468  -0.266 -38.532-181.751 -31.593 -19.499 -23.502

   0.164  -5.399 -18.322  -0.110   1.255   4.390  -0.083  -1.841  16.884   0.146

   8.320 -34.016   0.129 -57.042 -15.994  -0.262 -23.995 -26.588   0.284 -35.605

  37.405   0.145 -39.171 -31.098   0.332  -2.173 -19.506   0.007 -23.953 -39.566

   0.126 -25.076 -38.816  -0.019 -26.113 -23.702   0.046  -7.803   2.545   0.700

 -13.342  13.650  -0.002  -7.311  -5.882  -0.004 -15.856  15.211  -0.080  -7.417

   8.935  -0.026  -7.660   7.795   0.076  -0.924  -3.185  -6.664  -0.906  -3.175

   6.670   0.537   3.777  -0.030  -5.440  -2.377  -0.023   0.457   2.850   6.413

   0.451   2.850  -6.402   0.883   2.946   6.447   0.903   2.965  -6.460
       HoF         ACTUAL,  PREDICTED ENERGY CHANGE, RATIO
   124.8931987    -4.9248075          -8.0710486    0.6101819
     STEPSIZE USED IS  0.01768
 CALCULATED STEP
    -0.000734 -0.001639  0.000159  0.003966 -0.001525  0.000232 -0.002795 -0.002170
     0.000246  0.005930  0.003033  0.000052 -0.000146  0.000754 -0.000740  0.000902
     0.005806 -0.000008 -0.002563  0.005462  0.000022 -0.001560  0.001963  0.000015
    -0.000904  0.000421  0.000018 -0.001040 -0.001173  0.000001 -0.000819 -0.003492
    -0.000021  0.002603 -0.000833 -0.000475 -0.000578  0.001847  0.000063 -0.000817
    -0.002289 -0.000013 -0.000844 -0.002102 -0.000018 -0.001026 -0.001779 -0.000018
    -0.002090 -0.002967 -0.000016 -0.000215  0.004308  0.000059 -0.000222  0.000627
    -0.000002  0.000995 -0.006673  0.000119  0.000328  0.004044  0.000077 -0.000855
    -0.000057 -0.000003 -0.000185 -0.001868 -0.000026  0.000731  0.001687  0.000120
     0.000781  0.001222  0.000118  0.000403 -0.000705  0.000031  0.000494 -0.001092
    -0.000008  0.000096  0.000068 -0.000005  0.000656 -0.001264 -0.000013  0.000414
    -0.001184 -0.000009  0.000121 -0.000673 -0.000005 -0.000199 -0.000184  0.000377
    -0.000218 -0.000130 -0.000378 -0.000259 -0.000642 -0.000005  0.000173 -0.000219
    -0.000007 -0.000243 -0.000514 -0.000334 -0.000259 -0.000460  0.000329 -0.000260
    -0.000517 -0.000328 -0.000278 -0.000464  0.000326
     NEW TRUST RADIUS =  0.02500
*REMARK   3 HET = Not identified; C 20 H 14 N O 4    =    39 atoms res:    1
 PM7 CHARGE=+1 EF NOXYZ PRNT=2 PDBOUT COMPFG GRAPHF
 24-methyl-5,7,18,20-tetraoxa-24-azoniahexacyclo[11.11.0.02,10.04,8.014,22.017,21]tetracosa-1(24),2,4(8),9,11,13,15,17(21),22-nonaene

  O(HETATM    1  O1  HET A   1)  -0.00168756 +1   -0.0034392 +1    0.0003371 +1
  O(HETATM    2  O2  HET A   1)   2.23485161 +1   -0.1395438 +1    0.0174168 +1     1     0     0
  O(HETATM    3  O3  HET A   1)   9.80926277 +1  126.5052016 +1   -0.0127176 +1     1     2     0
  O(HETATM    4  O4  HET A   1)   2.24154571 +1  110.1819323 +1   -0.0042880 +1     3     1     2
  N(HETATM    5  N   HET A   1)   4.31081940 +1  124.0581198 +1   -0.0228220 +1     1     2     3
  C(HETATM    6  C1  HET A   1)   1.40170059 +1  120.6179253 +1   -0.0025410 +1     5     1     2
  C(HETATM    7  C2  HET A   1)   1.45072401 +1  117.4512089 +1   -0.0051393 +1     6     5     1
  C(HETATM    8  C3  HET A   1)   1.42719661 +1  120.6801278 +1   -0.0007673 +1     7     6     5
  C(HETATM    9  C4  HET A   1)   1.46804983 +1  124.6201003 +1  179.9938819 +1     6     5     1
  C(HETATM   10  C5  HET A   1)   1.40708398 +1  118.2730872 +1   -0.0033985 +1     8     7     6
  C(HETATM   11  C6  HET A   1)   1.44207832 +1  118.4643242 +1  179.9954036 +1     9     6     5
  C(HETATM   12  C7  HET A   1)   4.60335187 +1   31.5071337 +1    0.0059555 +1     2     1     3
  C(HETATM   13  C8  HET A   1)   1.33699202 +1   71.2464147 +1   -0.0001334 +1     1     2     3
  C(HETATM   14  C9  HET A   1)   1.40692282 +1  120.1377004 +1  179.9974026 +1     7     6     5
  C(HETATM   15  C10 HET A   1)   1.36782911 +1  122.0737336 +1   -0.0051828 +1    14     7     6
  C(HETATM   16  C11 HET A   1)   1.43580171 +1  126.1179411 +1   -0.0060206 +1     9     6     5
  C(HETATM   17  C12 HET A   1)   1.43401030 +1  124.0022399 +1  179.9942445 +1     8     7     6
  C(HETATM   18  C13 HET A   1)   1.33645249 +1   71.1110411 +1    0.0085256 +1     2     1     3
  C(HETATM   19  C14 HET A   1)   1.41321145 +1  122.1915770 +1  179.9955348 +1    11     9     6
  C(HETATM   20  C15 HET A   1)   1.33836678 +1   37.7577951 +1    0.0024970 +1     3     1     2
  C(HETATM   21  C16 HET A   1)   1.33526209 +1   71.1966980 +1    0.0018271 +1     4     3     1
  C(HETATM   22  C17 HET A   1)   1.46859947 +1  114.0055563 +1  179.9970324 +1     5     1     2
  C(HETATM   23  C18 HET A   1)   1.38404882 +1  128.4064517 +1  179.9953318 +1    18     2     1
  C(HETATM   24  C19 HET A   1)   1.39287145 +1   37.1222355 +1 -179.9850836 +1     2     1     3
  C(HETATM   25  C20 HET A   1)   1.39286378 +1   37.1367151 +1 -179.9943479 +1     4     3     1
  H(HETATM   26  H7  HET A   1)   1.08675025 +1  120.6681707 +1 -179.9097655 +1    12     5     1
  H(HETATM   27  H9  HET A   1)   1.07527096 +1  123.4135583 +1  179.9982782 +1    14     7     6
  H(HETATM   28  H10 HET A   1)   1.08546283 +1  118.3681440 +1  179.9995869 +1    15    14     7
  H(HETATM   29  H11 HET A   1)   1.06047360 +1  127.7801834 +1   -0.0007976 +1    16     9     6
  H(HETATM   30  H12 HET A   1)   1.07559169 +1  123.5549558 +1   -0.0003013 +1    17     8     7
  H(HETATM   31  H14 HET A   1)   1.08410863 +1  122.0142721 +1  179.9993436 +1    19    11     9
  H(HETATM   32 1H17 HET A   1)   1.10947204 +1  109.8010057 +1  116.5854336 +1    22     5     1
  H(HETATM   33 2H17 HET A   1)   1.10947597 +1  109.8068004 +1 -116.5787484 +1    22     5     1
  H(HETATM   34 3H17 HET A   1)   1.11148738 +1  113.7548422 +1    0.0029235 +1    22     5     1
  H(HETATM   35  H18 HET A   1)   1.08265025 +1  120.8751554 +1   -0.0015139 +1    23    18     2
  H(HETATM   36 1H19 HET A   1)   1.11001651 +1  110.0459310 +1  119.1799406 +1    24     2     1
  H(HETATM   37 2H19 HET A   1)   1.11002468 +1  110.0517198 +1 -119.1811488 +1    24     2     1
  H(HETATM   38 1H20 HET A   1)   1.11001504 +1  110.0604136 +1  119.1601442 +1    25     4     3
  H(HETATM   39 2H20 HET A   1)   1.11002322 +1  110.0655953 +1 -119.1608859 +1    25     4     3

 XPARAM 
  1  1   -0.0017  1  2   -0.0034  1  3    0.0003  2  1    2.2349  2  2   -0.0024
  2  3    0.0003  3  1    9.8093  3  2    2.2079  3  3   -0.0002  4  1    2.2415
  4  2    1.9230  4  3    6.2831  5  1    4.3108  5  2    2.1652  5  3    6.2828
  6  1    1.4017  6  2    2.1052  6  3   -0.0000  7  1    1.4507  7  2    2.0499
  7  3    6.2831  8  1    1.4272  8  2    2.1063  8  3   -0.0000  9  1    1.4680
  9  2    2.1750  9  3    3.1415 10  1    1.4071 10  2    2.0643 10  3    6.2831
 11  1    1.4421 11  2    2.0676 11  3    3.1415 12  1    4.6034 12  2    0.5499
 12  3    0.0001 13  1    1.3370 13  2    1.2435 13  3    6.2832 14  1    1.4069
 14  2    2.0968 14  3    3.1415 15  1    1.3678 15  2    2.1306 15  3    6.2831
 16  1    1.4358 16  2    2.2012 16  3    6.2831 17  1    1.4340 17  2    2.1642
 17  3    3.1415 18  1    1.3365 18  2    1.2411 18  3    0.0001 19  1    1.4132
 19  2    2.1326 19  3    3.1415 20  1    1.3384 20  2    0.6590 20  3    6.2832
 21  1    1.3353 21  2    1.2426 21  3    6.2832 22  1    1.4686 22  2    1.9898
 22  3    3.1415 23  1    1.3840 23  2    2.2411 23  3    3.1415 24  1    1.3929
 24  2    0.6479 24  3    3.1419 25  1    1.3929 25  2    0.6482 25  3    3.1417
 26  1    1.0868 26  2    2.1061 26  3    3.1432 27  1    1.0753 27  2    2.1540
 27  3    3.1416 28  1    1.0855 28  2    2.0659 28  3    3.1416 29  1    1.0605
 29  2    2.2302 29  3   -0.0000 30  1    1.0756 30  2    2.1564 30  3   -0.0000
 31  1    1.0841 31  2    2.1296 31  3    3.1416 32  1    1.1095 32  2    1.9164
 32  3    2.0348 33  1    1.1095 33  2    1.9165 33  3    4.2485 34  1    1.1115
 34  2    1.9854 34  3    0.0001 35  1    1.0827 35  2    2.1097 35  3    6.2832
 36  1    1.1100 36  2    1.9207 36  3    2.0801 37  1    1.1100 37  2    1.9208
 37  3    4.2031 38  1    1.1100 38  2    1.9209 38  3    2.0797 39  1    1.1100
 39  2    1.9210 39  3    4.2034
 grad
       0.00001    0.00001   -0.00000  -81.68409    0.00000    0.00000   38.90517   47.82262
       0.00000  -71.78056   10.40287    0.47682   29.59583  -33.09330  -34.84202   30.32756
     125.48730   -0.30741   33.07476  190.69382   -0.03987  -33.77757  109.38235    0.09951
     -12.38269   32.04295    0.98131  -28.04850   38.75428    0.05700    4.49589    6.46825
      -0.26582  -38.53170 -181.75098  -31.59256  -19.49891  -23.50246    0.16447   -5.39913
     -18.32151   -0.10965    1.25541    4.39005   -0.08261   -1.84088   16.88414    0.14560
       8.32013  -34.01622    0.12930  -57.04228  -15.99433   -0.26153  -23.99499  -26.58786
       0.28352  -35.60485   37.40518    0.14478  -39.17119  -31.09796    0.33191   -2.17327
     -19.50603    0.00725  -23.95304  -39.56645    0.12620  -25.07619  -38.81585   -0.01886
     -26.11277  -23.70180    0.04599   -7.80280    2.54535    0.69965  -13.34174   13.65048
      -0.00232   -7.31081   -5.88173   -0.00407  -15.85557   15.21091   -0.08019   -7.41701
       8.93495   -0.02637   -7.65954    7.79474    0.07552   -0.92370   -3.18524   -6.66356
      -0.90613   -3.17541    6.66963    0.53651    3.77673   -0.03004   -5.44008   -2.37714
      -0.02273    0.45737    2.84986    6.41338    0.45117    2.84952   -6.40208    0.88336
       2.94630    6.44655    0.90261    2.96519   -6.45962
 CYCLE:     4 TIME:   0.031 TIME LEFT:  2.00D  GRAD.:   381.463 HEAT:  124.8932

          HESSIAN HAS  0 NEGATIVE EIGENVALUE(S)
  MIN SEARCH, CORRECT HESSIAN, TRYING PURE NR STEP
 LAMBDA THAT MINIMIZES ALONG ALL MODES =        0.000000000
 PURE NR-STEP HAS LENGTH   0.77297
 LAMBDA THAT MINIMIZES ALONG ALL MODES =     -159.557621553
 P-RFO-STEP   HAS LENGTH   0.52505
 LAMBDA THAT MINIMIZES ALONG ALL MODES =   -13124.894659138
 QA/TRIM-STEP HAS LENGTH   0.02500

  HEAT OF FORMATION        832.72878211151692    
 PARAMETERS       -0.003  -0.003   0.000   2.239  -0.002   0.000   9.805   2.200
  -0.001   2.246   1.923   6.283   4.308   2.171   6.285   1.399   2.100  -0.000

   1.447   2.039   6.283   1.428   2.100  -0.000   1.468   2.173   3.141   1.408

   2.062   6.283   1.441   2.067   3.141   4.605   0.562   0.002   1.337   1.246

   6.283   1.406   2.098   3.141   1.367   2.130   6.283   1.435   2.200   6.283

   1.432   2.166   3.141   1.339   1.243   0.000   1.414   2.135   3.141   1.340

   0.656   6.283   1.337   1.246   6.283   1.468   1.991   3.141   1.385   2.244

   3.141   1.393   0.651   3.142   1.394   0.650   3.142   1.087   2.106   3.143

   1.076   2.153   3.142   1.086   2.066   3.142   1.061   2.229  -0.000   1.076

   2.156  -0.000   1.084   2.129   3.142   1.109   1.917   2.035   1.109   1.917

   4.248   1.111   1.985   0.000   1.083   2.110   6.283   1.110   1.921   2.080

   1.110   1.921   4.204   1.110   1.921   2.079   1.110   1.921   4.204
 GRADIENT         -0.000   0.000  -0.000********   0.000   0.000 -63.283********
   0.000  37.045-148.623   1.5224033.703****************************************

************************************************  94.665-938.821  -1.2301623.051

****************-108.040 573.087  -1.964************************  67.402 114.637

 -44.496   5.055  69.059  -0.208 -15.499  45.367   0.218  -7.400 -49.060  -0.968

  24.980  74.674  -0.301   0.036 -24.400   2.840  64.359-287.669   0.867 -18.156

  87.951  -0.589  73.758 162.815   0.582   4.884   1.292   0.742  11.358   3.800

  -0.843 -23.999 -31.985   0.272 -26.462 -13.574  -0.0592398.3613290.069********

 -12.968  13.053  -0.087  -5.127  -8.033  -0.106 -10.650   7.482   0.346 -16.236

  19.565  -0.177 -19.229  19.255  -0.514   0.608  -2.141  -5.098   0.445  -1.984

   4.779  -1.647  10.438   0.305  -7.626  -4.419   0.114  -0.228   2.237   6.613

  -0.124   2.339  -6.232   1.097   2.862   6.635   1.111   2.902  -6.670
       HoF         ACTUAL,  PREDICTED ENERGY CHANGE, RATIO
   832.7287821   707.8355835          -8.5641642  -82.6508655
 UNACCEPTABLE RATIO, REJECTING STEP, REDUCING DMAX TO 0.0125
  MIN SEARCH, CORRECT HESSIAN, TRYING PURE NR STEP
 LAMBDA THAT MINIMIZES ALONG ALL MODES =        0.000000000
 PURE NR-STEP HAS LENGTH   0.77297
 LAMBDA THAT MINIMIZES ALONG ALL MODES =     -159.557621553
 P-RFO-STEP   HAS LENGTH   0.52505
 LAMBDA THAT MINIMIZES ALONG ALL MODES =   -27331.113544406
 QA/TRIM-STEP HAS LENGTH   0.01250

  HEAT OF FORMATION        126.90016442346678    
 PARAMETERS       -0.003  -0.003   0.000   2.237  -0.002   0.000   9.807   2.204
  -0.000   2.244   1.923   6.283   4.310   2.168   6.284   1.400   2.102  -0.000

   1.449   2.044   6.283   1.428   2.103  -0.000   1.468   2.174   3.141   1.408

   2.063   6.283   1.441   2.068   3.141   4.604   0.556   0.001   1.337   1.245

   6.283   1.407   2.097   3.141   1.367   2.131   6.283   1.435   2.201   6.283

   1.433   2.165   3.141   1.338   1.242   0.000   1.414   2.134   3.141   1.339

   0.658   6.283   1.336   1.244   6.283   1.468   1.991   3.141   1.384   2.242

   3.141   1.393   0.650   3.142   1.393   0.649   3.142   1.087   2.106   3.143

   1.076   2.154   3.142   1.086   2.066   3.142   1.061   2.230  -0.000   1.076

   2.156  -0.000   1.084   2.129   3.142   1.109   1.917   2.035   1.109   1.917

   4.248   1.111   1.985   0.000   1.083   2.110   6.283   1.110   1.921   2.080

   1.110   1.921   4.203   1.110   1.921   2.079   1.110   1.921   4.204
 GRADIENT          0.000   0.000  -0.000  77.423   0.000   0.000  -1.618-792.586
   0.000 -23.365 -51.701  -0.220  43.4981254.2051239.027-101.882 344.924  -9.215

 -19.527-179.717 -11.766 -25.901-136.049 -11.128  30.457-399.748  -0.979  14.560

 -33.921  -4.996 -45.903 253.721  -0.036-114.466 543.3581236.721 -12.157 -12.111

   0.262   1.220  31.249  -0.251  -8.385  27.452   0.005  -4.431 -15.585  -0.298

  10.592  17.233  -0.277 -32.449 -12.082   0.281  11.305-139.545  -0.199 -27.618

  61.109  -0.211   6.021  52.983  -0.238  -0.584 -14.677  -0.209  -8.524 -21.052

  -0.167 -24.956 -33.160  -0.074 -26.069 -18.974  -0.006 -15.507  10.075  -9.530

 -13.235  13.602  -0.015  -6.080  -7.132  -0.066 -12.759  11.045   0.131 -11.113

  14.125   0.040 -12.913  13.164  -0.165  -0.987  -3.031  -6.630  -0.962  -2.877

   6.395   0.386   4.497   0.275  -5.633  -3.281  -0.005   0.556   2.745   6.597

   0.588   2.743  -6.562   0.974   2.911   6.550   0.994   2.938  -6.571
       HoF         ACTUAL,  PREDICTED ENERGY CHANGE, RATIO
   126.9001644     2.0069658          -4.3797470   -0.4582378
 UNACCEPTABLE RATIO, REJECTING STEP, REDUCING DMAX TO 0.0062
  MIN SEARCH, CORRECT HESSIAN, TRYING PURE NR STEP
 LAMBDA THAT MINIMIZES ALONG ALL MODES =        0.000000000
 PURE NR-STEP HAS LENGTH   0.77297
 LAMBDA THAT MINIMIZES ALONG ALL MODES =     -159.557621553
 P-RFO-STEP   HAS LENGTH   0.52505
 LAMBDA THAT MINIMIZES ALONG ALL MODES =   -55892.297591505
 QA/TRIM-STEP HAS LENGTH   0.00625

  HEAT OF FORMATION        123.98740039565018    
 PARAMETERS       -0.002  -0.003   0.000   2.236  -0.002   0.000   9.808   2.206
  -0.000   2.243   1.923   6.283   4.310   2.166   6.283   1.401   2.104  -0.000

   1.450   2.047   6.283   1.427   2.105  -0.000   1.468   2.174   3.141   1.407

   2.064   6.283   1.442   2.068   3.141   4.604   0.553   0.001   1.337   1.244

   6.283   1.407   2.097   3.142   1.368   2.131   6.283   1.436   2.201   6.283

   1.434   2.165   3.141   1.337   1.242   0.000   1.413   2.133   3.141   1.339

   0.658   6.283   1.336   1.243   6.283   1.468   1.990   3.142   1.384   2.242

   3.141   1.393   0.649   3.142   1.393   0.649   3.142   1.087   2.106   3.143

   1.075   2.154   3.142   1.086   2.066   3.142   1.061   2.230  -0.000   1.076

   2.156  -0.000   1.084   2.129   3.142   1.109   1.916   2.035   1.109   1.917

   4.248   1.111   1.985   0.000   1.083   2.110   6.283   1.110   1.921   2.080

   1.110   1.921   4.203   1.110   1.921   2.080   1.110   1.921   4.204
 GRADIENT          0.000   0.000  -0.000 -43.012   0.000   0.000  22.247-320.296
   0.000 -50.119 -14.950  -0.135  29.943 412.618 127.067 -32.907 202.618  -1.499

  10.660   7.548  -2.050 -26.829  -7.585  -1.892   6.117-161.999  -0.315  -7.621

   6.353  -0.827 -18.449 116.113   0.008 -55.791 -20.835 125.930 -15.494 -17.082

   0.100  -1.922   7.950  -0.135  -3.767  16.624  -0.055  -3.137   1.696  -0.076

   9.251  -7.184  -0.035 -43.881 -14.772   0.041  -9.126 -76.033  -0.118 -32.038

  48.260  -0.044 -20.232   5.824  -0.103  -1.457 -17.311   0.002 -16.087 -29.397

  -0.024 -25.054 -35.962  -0.031 -26.088 -21.365   0.018 -11.254   5.970  -1.881

 -13.284  13.626  -0.005  -6.672  -6.545  -0.024 -14.390  13.254   0.028  -9.341

  11.612  -0.004 -10.009  10.250  -0.036  -0.958  -3.098  -6.625  -0.936  -3.043

   6.565   0.464   4.097   0.059  -5.615  -2.745  -0.008   0.512   2.801   6.501

   0.518   2.799  -6.483   0.925   2.925   6.501   0.947   2.947  -6.518
       HoF         ACTUAL,  PREDICTED ENERGY CHANGE, RATIO
   123.9874004    -0.9057983          -2.2211299    0.4078097
     STEPSIZE USED IS  0.00625
 CALCULATED STEP
    -0.000430  0.000167 -0.000008  0.001052  0.000035 -0.000032 -0.001024 -0.001786
    -0.000126  0.001092 -0.000097 -0.000052 -0.000621  0.001253  0.000441 -0.000749
    -0.001450 -0.000026 -0.000852 -0.002862 -0.000030  0.000224 -0.001690 -0.000033
    -0.000016 -0.000620 -0.000048  0.000249 -0.000574 -0.000032 -0.000338  0.000052
    -0.000028  0.000358  0.003020  0.000402  0.000068  0.000538 -0.000029 -0.000157
     0.000333 -0.000030 -0.000224 -0.000008 -0.000031 -0.000179 -0.000214 -0.000035
    -0.000415  0.000580 -0.000035  0.000615  0.000490 -0.000022  0.000192  0.000501
    -0.000037  0.000358 -0.000587 -0.000026  0.000456  0.000753 -0.000032 -0.000209
     0.000436 -0.000032  0.000165  0.000703 -0.000035  0.000136  0.000793 -0.000023
     0.000154  0.000527 -0.000024  0.000073 -0.000018 -0.000018  0.000169 -0.000213
    -0.000009  0.000057  0.000138 -0.000008  0.000209 -0.000249 -0.000007  0.000063
    -0.000142 -0.000008  0.000063 -0.000104 -0.000010 -0.000059  0.000085  0.000111
    -0.000054  0.000089 -0.000128 -0.000089 -0.000042 -0.000008  0.000040  0.000075
    -0.000008 -0.000083 -0.000022 -0.000123 -0.000078 -0.000019  0.000106 -0.000090
    -0.000024 -0.000123 -0.000085 -0.000021  0.000107
     NEW TRUST RADIUS =  0.00625
*REMARK   3 HET = Not identified; C 20 H 14 N O 4    =    39 atoms res:    1
 PM7 CHARGE=+1 EF NOXYZ PRNT=2 PDBOUT COMPFG GRAPHF
 24-methyl-5,7,18,20-tetraoxa-24-azoniahexacyclo[11.11.0.02,10.04,8.014,22.017,21]tetracosa-1(24),2,4(8),9,11,13,15,17(21),22-nonaene

  O(HETATM    1  O1  HET A   1)  -0.00211803 +1   -0.0032723 +1    0.0003287 +1
  O(HETATM    2  O2  HET A   1)   2.23590331 +1   -0.1375603 +1    0.0155970 +1     1     0     0
  O(HETATM    3  O3  HET A   1)   9.80823901 +1  126.4028788 +1   -0.0199150 +1     1     2     0
  O(HETATM    4  O4  HET A   1)   2.24263816 +1  110.1763977 +1   -0.0072643 +1     3     1     2
  N(HETATM    5  N   HET A   1)   4.31019806 +1  124.1299221 +1    0.0024327 +1     1     2     3
  C(HETATM    6  C1  HET A   1)   1.40095178 +1  120.5348527 +1   -0.0040528 +1     5     1     2
  C(HETATM    7  C2  HET A   1)   1.44987205 +1  117.2872322 +1   -0.0068572 +1     6     5     1
  C(HETATM    8  C3  HET A   1)   1.42742103 +1  120.5832840 +1   -0.0026331 +1     7     6     5
  C(HETATM    9  C4  HET A   1)   1.46803351 +1  124.5845793 +1  179.9911136 +1     6     5     1
  C(HETATM   10  C5  HET A   1)   1.40733320 +1  118.2401966 +1   -0.0052518 +1     8     7     6
  C(HETATM   11  C6  HET A   1)   1.44174053 +1  118.4672848 +1  179.9937789 +1     9     6     5
  C(HETATM   12  C7  HET A   1)   4.60370938 +1   31.6801838 +1    0.0289902 +1     2     1     3
  C(HETATM   13  C8  HET A   1)   1.33706010 +1   71.2772324 +1   -0.0018184 +1     1     2     3
  C(HETATM   14  C9  HET A   1)   1.40676615 +1  120.1567722 +1  179.9956623 +1     7     6     5
  C(HETATM   15  C10 HET A   1)   1.36760528 +1  122.0732593 +1   -0.0069425 +1    14     7     6
  C(HETATM   16  C11 HET A   1)   1.43562284 +1  126.1056741 +1   -0.0080481 +1     9     6     5
  C(HETATM   17  C12 HET A   1)   1.43359527 +1  124.0354760 +1  179.9922407 +1     8     7     6
  C(HETATM   18  C13 HET A   1)   1.33706714 +1   71.1391101 +1    0.0072453 +1     2     1     3
  C(HETATM   19  C14 HET A   1)   1.41340317 +1  122.2202874 +1  179.9934309 +1    11     9     6
  C(HETATM   20  C15 HET A   1)   1.33872501 +1   37.7241905 +1    0.0010334 +1     3     1     2
  C(HETATM   21  C16 HET A   1)   1.33571776 +1   71.2398578 +1    0.0000139 +1     4     3     1
  C(HETATM   22  C17 HET A   1)   1.46839029 +1  114.0305460 +1  179.9951806 +1     5     1     2
  C(HETATM   23  C18 HET A   1)   1.38421406 +1  128.4467404 +1  179.9933295 +1    18     2     1
  C(HETATM   24  C19 HET A   1)   1.39300732 +1   37.1676730 +1 -179.9864208 +1     2     1     3
  C(HETATM   25  C20 HET A   1)   1.39301735 +1   37.1669324 +1 -179.9957490 +1     4     3     1
  H(HETATM   26  H7  HET A   1)   1.08682297 +1  120.6671610 +1 -179.9108208 +1    12     5     1
  H(HETATM   27  H9  HET A   1)   1.07543983 +1  123.4013503 +1  179.9977896 +1    14     7     6
  H(HETATM   28  H10 HET A   1)   1.08552032 +1  118.3760750 +1  179.9991077 +1    15    14     7
  H(HETATM   29  H11 HET A   1)   1.06068250 +1  127.7659205 +1   -0.0012223 +1    16     9     6
  H(HETATM   30  H12 HET A   1)   1.07565429 +1  123.5468288 +1   -0.0007682 +1    17     8     7
  H(HETATM   31  H14 HET A   1)   1.08417124 +1  122.0083116 +1  179.9987859 +1    19    11     9
  H(HETATM   32 1H17 HET A   1)   1.10941296 +1  109.8059011 +1  116.5917937 +1    22     5     1
  H(HETATM   33 2H17 HET A   1)   1.10942216 +1  109.8118914 +1 -116.5860565 +1    22     5     1
  H(HETATM   34 3H17 HET A   1)   1.11139830 +1  113.7524112 +1    0.0024680 +1    22     5     1
  H(HETATM   35  H18 HET A   1)   1.08268999 +1  120.8794535 +1   -0.0019809 +1    23    18     2
  H(HETATM   36 1H19 HET A   1)   1.10993352 +1  110.0446536 +1  119.1729194 +1    24     2     1
  H(HETATM   37 2H19 HET A   1)   1.10994715 +1  110.0506425 +1 -119.1750869 +1    24     2     1
  H(HETATM   38 1H20 HET A   1)   1.10992458 +1  110.0590403 +1  119.1530899 +1    25     4     3
  H(HETATM   39 2H20 HET A   1)   1.10993777 +1  110.0644023 +1 -119.1547652 +1    25     4     3

 XPARAM 
  1  1   -0.0021  1  2   -0.0033  1  3    0.0003  2  1    2.2359  2  2   -0.0024
  2  3    0.0003  3  1    9.8082  3  2    2.2061  3  3   -0.0003  4  1    2.2426
  4  2    1.9229  4  3    6.2831  5  1    4.3102  5  2    2.1665  5  3    6.2832
  6  1    1.4010  6  2    2.1037  6  3   -0.0001  7  1    1.4499  7  2    2.0470
  7  3    6.2831  8  1    1.4274  8  2    2.1046  8  3   -0.0000  9  1    1.4680
  9  2    2.1744  9  3    3.1414 10  1    1.4073 10  2    2.0637 10  3    6.2831
 11  1    1.4417 11  2    2.0676 11  3    3.1415 12  1    4.6037 12  2    0.5529
 12  3    0.0005 13  1    1.3371 13  2    1.2440 13  3    6.2832 14  1    1.4068
 14  2    2.0971 14  3    3.1415 15  1    1.3676 15  2    2.1306 15  3    6.2831
 16  1    1.4356 16  2    2.2010 16  3    6.2830 17  1    1.4336 17  2    2.1648
 17  3    3.1415 18  1    1.3371 18  2    1.2416 18  3    0.0001 19  1    1.4134
 19  2    2.1331 19  3    3.1415 20  1    1.3387 20  2    0.6584 20  3    6.2832
 21  1    1.3357 21  2    1.2434 21  3    6.2832 22  1    1.4684 22  2    1.9902
 22  3    3.1415 23  1    1.3842 23  2    2.2418 23  3    3.1415 24  1    1.3930
 24  2    0.6487 24  3    3.1418 25  1    1.3930 25  2    0.6487 25  3    3.1417
 26  1    1.0868 26  2    2.1060 26  3    3.1431 27  1    1.0754 27  2    2.1538
 27  3    3.1416 28  1    1.0855 28  2    2.0661 28  3    3.1416 29  1    1.0607
 29  2    2.2299 29  3   -0.0000 30  1    1.0757 30  2    2.1563 30  3   -0.0000
 31  1    1.0842 31  2    2.1294 31  3    3.1416 32  1    1.1094 32  2    1.9165
 32  3    2.0349 33  1    1.1094 33  2    1.9166 33  3    4.2484 34  1    1.1114
 34  2    1.9854 34  3    0.0000 35  1    1.0827 35  2    2.1097 35  3    6.2832
 36  1    1.1099 36  2    1.9206 36  3    2.0800 37  1    1.1099 37  2    1.9207
 37  3    4.2032 38  1    1.1099 38  2    1.9209 38  3    2.0796 39  1    1.1099
 39  2    1.9210 39  3    4.2035
 grad
       0.00001    0.00001   -0.00000  -43.01214    0.00000    0.00000   22.24706 -320.29574
       0.00000  -50.11870  -14.94967   -0.13464   29.94333  412.61759  127.06656  -32.90680
     202.61793   -1.49852   10.66014    7.54843   -2.05018  -26.82933   -7.58544   -1.89204
       6.11653 -161.99929   -0.31452   -7.62064    6.35301   -0.82717  -18.44889  116.11307
       0.00809  -55.79147  -20.83484  125.92979  -15.49429  -17.08185    0.09952   -1.92212
       7.95019   -0.13469   -3.76672   16.62401   -0.05517   -3.13733    1.69560   -0.07633
       9.25115   -7.18350   -0.03488  -43.88148  -14.77213    0.04145   -9.12556  -76.03301
      -0.11761  -32.03785   48.25954   -0.04380  -20.23225    5.82361   -0.10350   -1.45690
     -17.31100    0.00234  -16.08675  -29.39742   -0.02417  -25.05422  -35.96225   -0.03140
     -26.08804  -21.36501    0.01845  -11.25417    5.97028   -1.88114  -13.28358   13.62593
      -0.00548   -6.67168   -6.54524   -0.02377  -14.39039   13.25447    0.02771   -9.34067
      11.61183   -0.00360  -10.00877   10.24967   -0.03601   -0.95778   -3.09768   -6.62457
      -0.93646   -3.04262    6.56543    0.46424    4.09673    0.05930   -5.61456   -2.74486
      -0.00753    0.51241    2.80099    6.50081    0.51786    2.79903   -6.48321    0.92548
       2.92475    6.50142    0.94692    2.94669   -6.51789
 CYCLE:     5 TIME:   0.078 TIME LEFT:  2.00D  GRAD.:   645.593 HEAT:  123.9874

          HESSIAN HAS  0 NEGATIVE EIGENVALUE(S)
  MIN SEARCH, CORRECT HESSIAN, TRYING PURE NR STEP
 LAMBDA THAT MINIMIZES ALONG ALL MODES =        0.000000000
 PURE NR-STEP HAS LENGTH   0.97354
 LAMBDA THAT MINIMIZES ALONG ALL MODES =     -115.255146082
 P-RFO-STEP   HAS LENGTH   0.59139
 LAMBDA THAT MINIMIZES ALONG ALL MODES =   -35687.338601143
 QA/TRIM-STEP HAS LENGTH   0.00625

  HEAT OF FORMATION        124.22429740794178    
 PARAMETERS       -0.003  -0.003   0.001   2.237  -0.003   0.001   9.807   2.206
   0.000   2.244   1.923   6.283   4.309   2.164   6.281   1.401   2.102   0.000

   1.449   2.046   6.283   1.428   2.104   0.000   1.468   2.175   3.142   1.407

   2.063   6.283   1.442   2.066   3.142   4.605   0.554  -0.001   1.337   1.245

   6.283   1.407   2.097   3.142   1.367   2.130   6.283   1.435   2.201   6.283

   1.433   2.165   3.142   1.338   1.242   0.000   1.414   2.134   3.142   1.339

   0.658   6.283   1.336   1.244   6.283   1.468   1.991   3.142   1.384   2.242

   3.142   1.393   0.650   3.142   1.393   0.649   3.142   1.087   2.106   3.143

   1.076   2.153   3.142   1.086   2.066   3.142   1.061   2.229  -0.000   1.076

   2.156   0.000   1.084   2.129   3.142   1.109   1.917   2.035   1.109   1.917

   4.248   1.111   1.985   0.000   1.083   2.110   6.283   1.110   1.921   2.080

   1.110   1.921   4.203   1.110   1.921   2.079   1.110   1.921   4.204
 GRADIENT          0.000   0.000  -0.000  17.119   0.000   0.000  44.586 144.017
   0.000 -65.781  32.603   2.660 -19.243  97.529-739.829 -28.504-177.795   6.367

   2.770 -72.925  10.624  -2.455 -63.549  10.242 -14.978  63.035   5.229   1.238

   1.377   4.562   7.535 -14.540  -1.411 -85.120 302.929-723.094 -12.049  -5.787

   0.263  -5.059  -6.558  -0.069  -0.866  10.052  -0.238  -1.697  19.530   0.772

  15.583  23.050   0.556 -22.110 -33.608  -0.894 -27.208 -13.426   1.722 -35.803

  24.255   0.735 -45.652 -29.541   1.842  -1.702 -17.339   0.179  -7.013  -6.572

   0.467 -24.870 -32.063   0.034 -25.554 -18.039   0.138 -12.802   6.907  10.986

 -13.145  13.608   0.009  -6.911  -6.243   0.066 -15.838  15.479  -0.441 -11.143

  13.740  -0.124  -6.891   7.273   0.420  -0.989  -2.993  -6.453  -0.986  -3.156

   6.719   0.340   4.174  -0.364  -6.410  -2.068  -0.073   0.627   2.740   6.597

   0.580   2.748  -6.613   0.957   2.898   6.615   0.971   2.914  -6.615
       HoF         ACTUAL,  PREDICTED ENERGY CHANGE, RATIO
   124.2242974     0.2368970          -1.9315016   -0.1226491
 UNACCEPTABLE RATIO, REJECTING STEP, REDUCING DMAX TO 0.0031
  MIN SEARCH, CORRECT HESSIAN, TRYING PURE NR STEP
 LAMBDA THAT MINIMIZES ALONG ALL MODES =        0.000000000
 PURE NR-STEP HAS LENGTH   0.97354
 LAMBDA THAT MINIMIZES ALONG ALL MODES =     -115.255146082
 P-RFO-STEP   HAS LENGTH   0.59139
 LAMBDA THAT MINIMIZES ALONG ALL MODES =   -83971.642605641
 QA/TRIM-STEP HAS LENGTH   0.00312

  HEAT OF FORMATION        123.38081449642777    
 PARAMETERS       -0.002  -0.003   0.000   2.236  -0.003   0.000   9.808   2.206
  -0.000   2.243   1.923   6.283   4.310   2.165   6.282   1.401   2.103  -0.000

   1.449   2.047   6.283   1.428   2.104   0.000   1.468   2.175   3.141   1.407

   2.064   6.283   1.442   2.067   3.142   4.604   0.553  -0.000   1.337   1.244

   6.283   1.407   2.097   3.142   1.367   2.131   6.283   1.435   2.201   6.283

   1.433   2.165   3.141   1.337   1.242   0.000   1.413   2.134   3.142   1.339

   0.658   6.283   1.336   1.244   6.283   1.468   1.990   3.142   1.384   2.242

   3.141   1.393   0.649   3.142   1.393   0.649   3.142   1.087   2.106   3.143

   1.076   2.154   3.142   1.086   2.066   3.142   1.061   2.230  -0.000   1.076

   2.156  -0.000   1.084   2.129   3.142   1.109   1.917   2.035   1.109   1.917

   4.248   1.111   1.985   0.000   1.083   2.110   6.283   1.110   1.921   2.080

   1.110   1.921   4.203   1.110   1.921   2.080   1.110   1.921   4.204
 GRADIENT          0.000   0.000  -0.000 -42.476   0.000   0.000  40.904  62.137
   0.000 -65.239  21.662   1.042  -6.283  -2.678-231.099 -20.614 -79.049   1.631

  12.206 -26.612   2.918  -9.056 -27.820   2.879 -10.840  19.996   2.124  -4.817

   9.227   1.280   2.508  10.501  -0.566 -56.858   4.060-224.234 -13.190 -10.645

   0.200  -3.963  -1.313  -0.113  -1.602  12.437  -0.138  -1.917  16.266   0.321

  13.593  11.103   0.238 -29.937 -29.805  -0.419 -23.795 -24.914   0.653 -35.509

  30.871   0.313 -41.053 -25.468   0.729  -1.807 -17.999   0.045 -10.885 -14.131

   0.216 -25.037 -34.222  -0.004 -25.797 -19.827   0.071 -11.397   5.842   3.577

[...]
     58         20  C    BOND            1.359860     -0.147226  KCAL/ANGSTROM
     59         20  C    ANGLE          42.855436     -0.094724  KCAL/RADIAN  
     60         20  C    DIHEDRAL      327.446942     -0.009252  KCAL/RADIAN  
     61         21  C    BOND            1.362086     -0.043679  KCAL/ANGSTROM
     62         21  C    ANGLE          70.090195     -0.355596  KCAL/RADIAN  
     63         21  C    DIHEDRAL      358.774248      0.035468  KCAL/RADIAN  
     64         22  C    BOND            1.471510      0.044678  KCAL/ANGSTROM
     65         22  C    ANGLE         120.341016     -0.223340  KCAL/RADIAN  
     66         22  C    DIHEDRAL      194.304328      0.246999  KCAL/RADIAN  
     67         23  C    BOND            1.383857     -0.020679  KCAL/ANGSTROM
     68         23  C    ANGLE         127.785397     -0.461365  KCAL/RADIAN  
     69         23  C    DIHEDRAL      179.982027      0.066061  KCAL/RADIAN  
     70         24  C    BOND            1.449181      0.006069  KCAL/ANGSTROM
     71         24  C    ANGLE          35.841516     -0.193086  KCAL/RADIAN  
     72         24  C    DIHEDRAL      196.521999      0.081648  KCAL/RADIAN  
     73         25  C    BOND            1.449106     -0.012302  KCAL/ANGSTROM
     74         25  C    ANGLE          35.607610     -0.210825  KCAL/RADIAN  
     75         25  C    DIHEDRAL      177.880692     -0.044966  KCAL/RADIAN  
     76         26  H    BOND            1.108107      0.015340  KCAL/ANGSTROM
     77         26  H    ANGLE         119.680509     -0.060287  KCAL/RADIAN  
     78         26  H    DIHEDRAL      231.591622      0.290329  KCAL/RADIAN  
     79         27  H    BOND            1.093437      0.059350  KCAL/ANGSTROM
     80         27  H    ANGLE         119.094665     -0.067508  KCAL/RADIAN  
     81         27  H    DIHEDRAL      175.260978      0.025176  KCAL/RADIAN  
     82         28  H    BOND            1.096045      0.006871  KCAL/ANGSTROM
     83         28  H    ANGLE         120.613532     -0.025533  KCAL/RADIAN  
     84         28  H    DIHEDRAL      175.720920      0.052949  KCAL/RADIAN  
     85         29  H    BOND            1.084584      0.012430  KCAL/ANGSTROM
     86         29  H    ANGLE         122.061721     -0.023296  KCAL/RADIAN  
     87         29  H    DIHEDRAL       -8.621681      0.022188  KCAL/RADIAN  
     88         30  H    BOND            1.095098      0.026503  KCAL/ANGSTROM
     89         30  H    ANGLE         119.634024      0.009385  KCAL/RADIAN  
     90         30  H    DIHEDRAL        1.898155      0.046592  KCAL/RADIAN  
     91         31  H    BOND            1.089734      0.018483  KCAL/ANGSTROM
     92         31  H    ANGLE         120.576810     -0.028484  KCAL/RADIAN  
     93         31  H    DIHEDRAL      176.952834      0.059757  KCAL/RADIAN  
     94         32  H    BOND            1.111485      0.007738  KCAL/ANGSTROM
     95         32  H    ANGLE         111.593564     -0.032562  KCAL/RADIAN  
     96         32  H    DIHEDRAL      154.842961      0.067783  KCAL/RADIAN  
     97         33  H    BOND            1.109598      0.013386  KCAL/ANGSTROM
     98         33  H    ANGLE         111.208775     -0.096097  KCAL/RADIAN  
     99         33  H    DIHEDRAL      276.159054      0.075574  KCAL/RADIAN  
    100         34  H    BOND            1.109294      0.040371  KCAL/ANGSTROM
    101         34  H    ANGLE         111.282938      0.029692  KCAL/RADIAN  
    102         34  H    DIHEDRAL       36.507035      0.079215  KCAL/RADIAN  
    103         35  H    BOND            1.093467      0.035263  KCAL/ANGSTROM
    104         35  H    ANGLE         121.416164     -0.107102  KCAL/RADIAN  
    105         35  H    DIHEDRAL      360.012360     -0.003775  KCAL/RADIAN  
    106         36  H    BOND            1.100953      0.013020  KCAL/ANGSTROM
    107         36  H    ANGLE         108.073442     -0.068260  KCAL/RADIAN  
    108         36  H    DIHEDRAL      116.315730      0.037278  KCAL/RADIAN  
    109         37  H    BOND            1.100760      0.017020  KCAL/ANGSTROM
    110         37  H    ANGLE         108.038656     -0.056660  KCAL/RADIAN  
    111         37  H    DIHEDRAL      243.714337      0.012906  KCAL/RADIAN  
    112         38  H    BOND            1.100686      0.003701  KCAL/ANGSTROM
    113         38  H    ANGLE         107.814652     -0.135264  KCAL/RADIAN  
    114         38  H    DIHEDRAL      116.644867      0.038252  KCAL/RADIAN  
    115         39  H    BOND            1.101314      0.013283  KCAL/ANGSTROM
    116         39  H    ANGLE         107.898052     -0.006967  KCAL/RADIAN  
    117         39  H    DIHEDRAL      243.430287      0.029172  KCAL/RADIAN  




  ATOM               CHEMICAL                 BOND LENGTH      BOND ANGLE     TWIST ANGLE 
 NUMBER               SYMBOL                  (ANGSTROMS)      (DEGREES)       (DEGREES) 
   (I)                                           NA:I           NB:NA:I       NC:NB:NA:I       NA    NB    NC 
     1       O(HETATM    1  O1  HET A   1)   -0.16698155  *    0.1954376  *    0.8200945  *
     2       O(HETATM    2  O2  HET A   1)    2.36342974  *    2.5205084  *  -32.5948614  *     1     0     0
     3       O(HETATM    3  O3  HET A   1)    9.44832745  *  125.6029707  *   24.8854534  *     1     2     0
     4       O(HETATM    4  O4  HET A   1)    2.36033342  *  113.0614540  *  -29.8558752  *     3     1     2
     5       N(HETATM    5  N   HET A   1)    4.31695834  *  122.9717586  *  -15.5830237  *     1     2     3
     6       C(HETATM    6  C1  HET A   1)    1.41328190  *  118.3688316  *   10.0507718  *     5     1     2
     7       C(HETATM    7  C2  HET A   1)    1.40883394  *  118.0440880  *  -18.1290614  *     6     5     1
     8       C(HETATM    8  C3  HET A   1)    1.44486033  *  120.6643918  *   16.1370908  *     7     6     5
     9       C(HETATM    9  C4  HET A   1)    1.43701441  *  121.9592857  *  162.1648764  *     6     5     1
    10       C(HETATM   10  C5  HET A   1)    1.42757395  *  116.4469656  *   -6.4318892  *     8     7     6
    11       C(HETATM   11  C6  HET A   1)    1.41622687  *  117.6024538  *  161.0345416  *     9     6     5
    12       C(HETATM   12  C7  HET A   1)    4.73864013  *   31.5829087  *   17.6342369  *     2     1     3
    13       C(HETATM   13  C8  HET A   1)    1.35903340  *   69.3783494  *  -16.0120096  *     1     2     3
    14       C(HETATM   14  C9  HET A   1)    1.42028938  *  118.4484080  * -163.5759027  *     7     6     5
    15       C(HETATM   15  C10 HET A   1)    1.36670836  *  120.8668711  *   -3.1913853  *    14     7     6
    16       C(HETATM   16  C11 HET A   1)    1.42925892  *  122.6032930  *  -22.4314612  *     9     6     5
    17       C(HETATM   17  C12 HET A   1)    1.40292055  *  123.3190594  *  171.6533589  *     8     7     6
    18       C(HETATM   18  C13 HET A   1)    1.36644462  *   69.4965779  *   16.0300070  *     2     1     3
    19       C(HETATM   19  C14 HET A   1)    1.43061572  *  121.6487220  * -174.5607550  *    11     9     6
    20       C(HETATM   20  C15 HET A   1)    1.35986043  *   42.8554357  *  -32.5530578  *     3     1     2
    21       C(HETATM   21  C16 HET A   1)    1.36208590  *   70.0901947  *   -1.2257519  *     4     3     1
    22       C(HETATM   22  C17 HET A   1)    1.47151000  *  120.3410163  * -165.6956722  *     5     1     2
    23       C(HETATM   23  C18 HET A   1)    1.38385698  *  127.7853967  *  179.9820274  *    18     2     1
    24       C(HETATM   24  C19 HET A   1)    1.44918132  *   35.8415164  * -163.4780011  *     2     1     3
    25       C(HETATM   25  C20 HET A   1)    1.44910554  *   35.6076099  *  177.8806922  *     4     3     1
    26       H(HETATM   26  H7  HET A   1)    1.10810746  *  119.6805086  * -128.4083784  *    12     5     1
    27       H(HETATM   27  H9  HET A   1)    1.09343712  *  119.0946648  *  175.2609785  *    14     7     6
    28       H(HETATM   28  H10 HET A   1)    1.09604523  *  120.6135317  *  175.7209204  *    15    14     7
    29       H(HETATM   29  H11 HET A   1)    1.08458399  *  122.0617212  *   -8.6216810  *    16     9     6
    30       H(HETATM   30  H12 HET A   1)    1.09509840  *  119.6340236  *    1.8981547  *    17     8     7
    31       H(HETATM   31  H14 HET A   1)    1.08973439  *  120.5768105  *  176.9528344  *    19    11     9
    32       H(HETATM   32 1H17 HET A   1)    1.11148519  *  111.5935636  *  154.8429612  *    22     5     1
    33       H(HETATM   33 2H17 HET A   1)    1.10959816  *  111.2087751  *  -83.8409462  *    22     5     1
    34       H(HETATM   34 3H17 HET A   1)    1.10929431  *  111.2829382  *   36.5070350  *    22     5     1
    35       H(HETATM   35  H18 HET A   1)    1.09346718  *  121.4161638  *    0.0123597  *    23    18     2
    36       H(HETATM   36 1H19 HET A   1)    1.10095258  *  108.0734416  *  116.3157303  *    24     2     1
    37       H(HETATM   37 2H19 HET A   1)    1.10076016  *  108.0386561  * -116.2856625  *    24     2     1
    38       H(HETATM   38 1H20 HET A   1)    1.10068641  *  107.8146525  *  116.6448673  *    25     4     3
    39       H(HETATM   39 2H20 HET A   1)    1.10131438  *  107.8980520  * -116.5697127  *    25     4     3

                             CARTESIAN COORDINATES

   1    O       -0.166981550     0.195437563     0.820094504
   2    O        2.196448194     0.195437563     0.820094504
   3    O       -5.667468308     7.877594614     0.820094504
   4    O       -4.674327872     9.725844151     1.901214091
   5    N       -2.516380718     3.683977536     1.792998253
   6    C       -1.854578448     4.926824613     1.914302111
   7    C       -0.458074842     4.918264860     2.100090918
   8    C        0.314933031     3.729499840     1.822750093
   9    C       -2.564381161     6.175092256     1.859362110
  10    C       -0.423944880     2.552349748     1.496645106
  11    C       -1.919654623     7.320334034     2.387043373
  12    C       -1.840319726     2.560595014     1.571922447
  13    C        0.311663675     1.418046048     1.170949202
  14    C        0.169015555     6.102209252     2.571530461
  15    C       -0.553404493     7.243922583     2.777665581
  16    C       -3.843422797     6.306881743     1.235290735
  17    C        1.717633834     3.704699134     1.823957614
  18    C        1.717832758     1.425554260     1.173522106
  19    C       -2.588435413     8.581450741     2.481797025
  20    C       -4.453251436     7.520920694     1.317770589
  21    C       -3.841088432     8.650078765     1.962196604
  22    C       -3.953308683     3.555269174     2.082849711
  23    C        2.445240073     2.556943355     1.498941001
  24    C        1.021684214    -0.618087058     0.578777732
  25    C       -5.841937346     9.276327113     1.170098902
  26    H       -2.387478739     1.602986814     1.464657808
  27    H        1.239431989     6.084484901     2.794014706
  28    H       -0.079827417     8.134180611     3.207177551
  29    H       -4.284503132     5.506175384     0.651647097
  30    H        2.275051754     4.613499316     2.074173533
  31    H       -2.092710113     9.439058534     2.935984575
  32    H       -4.316906982     4.385830601     2.725783086
  33    H       -4.551919324     3.545065933     1.148628505
  34    H       -4.169978368     2.619151772     2.637171199
  35    H        3.538692752     2.551499070     1.497500967
  36    H        1.016493186    -0.903625451    -0.484489624
  37    H        1.016774603    -1.436532554     1.314845519
  38    H       -6.709373875     9.348136435     1.843825751
  39    H       -5.896029463     9.851117171     0.232237610


           Empirical Formula: C20 H14 N O4  =    39 atoms



      MOLECULAR POINT GROUP   :   C1  


                  EIGENVALUES  
 -41.98185 -35.77996 -35.40629 -34.66761 -34.35683 -32.88226 -32.76977 -32.55777
 -31.39404 -30.60860 -29.90400 -29.22958 -28.34900 -28.00946 -27.30828 -26.85370
 -26.53136 -25.70476 -25.42456 -24.72196 -24.03028 -22.79426 -22.13056 -21.84036
 -21.40754 -20.69913 -20.53603 -20.28657 -20.25082 -20.03052 -19.87290 -19.78478
 -19.55851 -18.74749 -18.43502 -18.30832 -18.20278 -18.02428 -17.89305 -17.67612
 -17.57381 -17.38439 -17.22700 -17.10791 -16.75402 -16.68265 -16.54186 -16.41541
 -16.22791 -16.09272 -15.99455 -15.87121 -15.52020 -15.22232 -15.13504 -14.13735
 -14.03525 -13.37547 -12.46273 -12.03240 -11.67306  -5.13333  -4.54330  -3.67808
  -3.18297  -3.11256  -2.82454  -2.55980  -2.20076  -1.82853  -1.76210  -1.43233
  -1.17199  -1.10796  -0.81573  -0.70787  -0.49933  -0.12988  -0.06579   0.10669
   0.26739   0.34072   0.42379   0.48731   0.60905   0.73544   0.89422   0.96975
   1.05600   1.06734   1.12024   1.16498   1.18187   1.23409   1.35620   1.37132
   1.42501   1.55082   1.74163   1.81893   1.94548   1.99191   2.02643   2.11367
   2.13114   2.26768   2.36017   2.38996   2.39097   2.66662   2.71835   2.78121
   2.93709   3.06366


              NET ATOMIC CHARGES AND DIPOLE CONTRIBUTIONS

  ATOM NO.                 TYPE                        CHARGE      No. of ELECS.   s-Pop       p-Pop       
    1          O(HETATM    1  O1  HET A   1)          -0.321167        6.3212     1.88097     4.44020
    2          O(HETATM    2  O2  HET A   1)          -0.289831        6.2898     1.88180     4.40803
    3          O(HETATM    3  O3  HET A   1)          -0.308773        6.3088     1.87925     4.42952
    4          O(HETATM    4  O4  HET A   1)          -0.295987        6.2960     1.87987     4.41611
    5          N(HETATM    5  N   HET A   1)          -0.064617        5.0646     1.50335     3.56127
    6          C(HETATM    6  C1  HET A   1)           0.046589        3.9534     1.05954     2.89388
    7          C(HETATM    7  C2  HET A   1)           0.009545        3.9905     1.06781     2.92265
    8          C(HETATM    8  C3  HET A   1)           0.026130        3.9739     1.06343     2.91044
    9          C(HETATM    9  C4  HET A   1)          -0.013571        4.0136     1.05610     2.95747
   10          C(HETATM   10  C5  HET A   1)          -0.159345        4.1593     1.04272     3.11663
   11          C(HETATM   11  C6  HET A   1)           0.001150        3.9989     1.06260     2.93625
   12          C(HETATM   12  C7  HET A   1)           0.094230        3.9058     1.10449     2.80128
   13          C(HETATM   13  C8  HET A   1)           0.167612        3.8324     1.08123     2.75115
   14          C(HETATM   14  C9  HET A   1)          -0.165050        4.1650     1.08123     3.08382
   15          C(HETATM   15  C10 HET A   1)          -0.077220        4.0772     1.09437     2.98285
   16          C(HETATM   16  C11 HET A   1)          -0.269605        4.2696     1.06647     3.20314
   17          C(HETATM   17  C12 HET A   1)          -0.155806        4.1558     1.08245     3.07335
   18          C(HETATM   18  C13 HET A   1)           0.118278        3.8817     1.08194     2.79978
   19          C(HETATM   19  C14 HET A   1)          -0.199144        4.1991     1.07618     3.12296
   20          C(HETATM   20  C15 HET A   1)           0.189797        3.8102     1.08879     2.72141
   21          C(HETATM   21  C16 HET A   1)           0.159228        3.8408     1.08662     2.75415
   22          C(HETATM   22  C17 HET A   1)          -0.293848        4.2938     1.07402     3.21983
   23          C(HETATM   23  C18 HET A   1)          -0.094136        4.0941     1.08671     3.00743
   24          C(HETATM   24  C19 HET A   1)           0.161435        3.8386     1.14742     2.69115
   25          C(HETATM   25  C20 HET A   1)           0.150935        3.8491     1.14605     2.70302
   26          H(HETATM   26  H7  HET A   1)           0.214638        0.7854     0.78536
   27          H(HETATM   27  H9  HET A   1)           0.180858        0.8191     0.81914
   28          H(HETATM   28  H10 HET A   1)           0.184297        0.8157     0.81570
   29          H(HETATM   29  H11 HET A   1)           0.183445        0.8166     0.81656
   30          H(HETATM   30  H12 HET A   1)           0.186246        0.8138     0.81375
   31          H(HETATM   31  H14 HET A   1)           0.199309        0.8007     0.80069
   32          H(HETATM   32 1H17 HET A   1)           0.202159        0.7978     0.79784
   33          H(HETATM   33 2H17 HET A   1)           0.192762        0.8072     0.80724
   34          H(HETATM   34 3H17 HET A   1)           0.186377        0.8136     0.81362
   35          H(HETATM   35  H18 HET A   1)           0.200704        0.7993     0.79930
   36          H(HETATM   36 1H19 HET A   1)           0.164105        0.8359     0.83590
   37          H(HETATM   37 2H19 HET A   1)           0.163362        0.8366     0.83664
   38          H(HETATM   38 1H20 HET A   1)           0.161295        0.8387     0.83870
   39          H(HETATM   39 2H20 HET A   1)           0.163616        0.8364     0.83638
 DIPOLE           X         Y         Z       TOTAL
 POINT-CHG.    -0.985    -2.976     0.907     3.264
 HYBRID        -0.810    -0.603    -0.424     1.095
 SUM           -1.795    -3.579     0.484     4.033


          ATOMIC ORBITAL ELECTRON POPULATIONS

                   Atom                  s        px        py        pz   
   O(HETATM    1  O1  HET A   1)   1.88097   1.35037   1.26470   1.82513
   O(HETATM    2  O2  HET A   1)   1.88180   1.31234   1.25556   1.84013
   O(HETATM    3  O3  HET A   1)   1.87925   1.36300   1.33146   1.73507
   O(HETATM    4  O4  HET A   1)   1.87987   1.34684   1.33949   1.72979
   N(HETATM    5  N   HET A   1)   1.50335   1.12931   1.10602   1.32594
   C(HETATM    6  C1  HET A   1)   1.05954   0.95667   0.84791   1.08929
   C(HETATM    7  C2  HET A   1)   1.06781   0.95174   0.99656   0.97434
   C(HETATM    8  C3  HET A   1)   1.06343   0.98512   0.94695   0.97837
   C(HETATM    9  C4  HET A   1)   1.05610   0.98557   0.95317   1.01874
   C(HETATM   10  C5  HET A   1)   1.04272   0.96522   1.00838   1.14303
   C(HETATM   11  C6  HET A   1)   1.06260   0.98021   0.96301   0.99303
   C(HETATM   12  C7  HET A   1)   1.10449   0.98680   0.94455   0.86993
   C(HETATM   13  C8  HET A   1)   1.08123   0.95300   0.84750   0.95066
   C(HETATM   14  C9  HET A   1)   1.08123   1.09389   0.96941   1.02052
   C(HETATM   15  C10 HET A   1)   1.09437   0.98320   1.05200   0.94766
   C(HETATM   16  C11 HET A   1)   1.06647   1.02363   1.06856   1.11094
   C(HETATM   17  C12 HET A   1)   1.08245   0.98218   1.07019   1.02098
   C(HETATM   18  C13 HET A   1)   1.08194   0.93178   0.87167   0.99633
   C(HETATM   19  C14 HET A   1)   1.07618   0.99668   1.05294   1.07334
   C(HETATM   20  C15 HET A   1)   1.08879   0.83477   0.96980   0.91685
   C(HETATM   21  C16 HET A   1)   1.08662   0.93466   0.85085   0.96865
   C(HETATM   22  C17 HET A   1)   1.07402   0.81255   1.21903   1.18824
   C(HETATM   23  C18 HET A   1)   1.08671   1.10144   0.94848   0.95751
   C(HETATM   24  C19 HET A   1)   1.14742   0.67759   0.89512   1.11844
   C(HETATM   25  C20 HET A   1)   1.14605   0.89779   0.77355   1.03168
   H(HETATM   26  H7  HET A   1)   0.78536
   H(HETATM   27  H9  HET A   1)   0.81914
   H(HETATM   28  H10 HET A   1)   0.81570
   H(HETATM   29  H11 HET A   1)   0.81656
   H(HETATM   30  H12 HET A   1)   0.81375
   H(HETATM   31  H14 HET A   1)   0.80069
   H(HETATM   32 1H17 HET A   1)   0.79784
   H(HETATM   33 2H17 HET A   1)   0.80724
   H(HETATM   34 3H17 HET A   1)   0.81362
   H(HETATM   35  H18 HET A   1)   0.79930
   H(HETATM   36 1H19 HET A   1)   0.83590
   H(HETATM   37 2H19 HET A   1)   0.83664
   H(HETATM   38 1H20 HET A   1)   0.83870
   H(HETATM   39 2H20 HET A   1)   0.83638

           DATA FOR GRAPH WRITTEN TO DISK

 **********************
 *                    *
 * JOB ENDED NORMALLY *
 *                    *
 **********************



 TOTAL JOB TIME:             7.18 SECONDS

 == MOPAC DONE ==
