 *******************************************************************************
 **                                                                           **
 **                              MOPAC v22.0.6                                **
 **                                                                           **
 *******************************************************************************
 **          Digital Object Identifier (DOI): 10.5281/zenodo.6511958          **
 **    Visit the DOI location for information on how to cite this program.    **
 *******************************************************************************

                              PM7 CALCULATION RESULTS

 *******************************************************************************
 *  CALCULATION DONE:                                Mon Oct  6 01:27:26 2025  *
 *  PM7        - The PM7 Hamiltonian to be used
 *  PDBOUT     - PRINT GEOMETRY IN PDB FORMAT
 *  RESIDUES   - DETERMINE THE SEQUENCE OF RESIDUES
 *
 *
 *
 *                 CHARGE ON SYSTEM = +1
 *
 *
 *
 *  EF         - USE EF ROUTINE FOR MINIMUM SEARCH
 *  T=         - A TIME OF 172800.0 SECONDS REQUESTED
 *  DUMP=N     - RESTART FILE WRITTEN EVERY 7200.0 SECONDS REQUESTED
 *  NOXYZ      - CARTESIAN COORDINATES NOT TO BE PRINTED
 *  PRNT       - EXTRA PRINTING IN EF ROUTINE
 *  GRAPH      - GENERATE FILE FOR GRAPHICS
 *  COMPFG     - PRINT HEAT OF FORMATION CALC'D IN COMPFG
 *******************************************************************************
PM7 CHARGE=+1 EF NOXYZ PRNT=2 PDBOUT COMPFG GRAPHF
 3034748

  ATOM    CHEMICAL      BOND LENGTH      BOND ANGLE     TWIST ANGLE 
 NUMBER    SYMBOL       (ANGSTROMS)      (DEGREES)       (DEGREES) 
   (I)                     NA:I           NB:NA:I       NC:NB:NA:I       NA    NB    NC 
     1       O          0.00000000  *    0.0000000  *    0.0000000  *     0     0     0
     2       N          4.59864400  *    0.0000000  *    0.0000000  *     1     0     0
     3       C          1.46124600  *  118.0097810  *    0.0000000  *     2     1     0
     4       C          1.47399900  *   47.4661690  *  -84.9731350  *     2     1     3
     5       C          1.52717700  *  102.9820430  *  -90.9105180  *     3     2     1
     6       C          1.52936800  *  104.0506460  *   38.5922470  *     5     3     2
     7       C          1.55134700  *  112.3211190  *   34.3072550  *     3     2     1
     8       C          1.53842000  *  109.3681420  *   19.4306130  *     4     2     1
     9       C          1.52826000  *  116.4303840  *  -66.8565060  *     7     3     2
    10       C          1.36349100  *  120.6182890  *   61.6376190  *     8     4     2
    11       C          1.22331800  *   32.2663400  *  125.1930320  *     1     2     3
    12       C          1.50919600  *  115.4866980  *  147.6894340  *    11     1     2
    13       H          1.11433100  *  110.2841580  *  151.3284680  *     3     2     1
    14       H          1.09984600  *  107.7222640  * -101.9354330  *     4     2     1
    15       H          1.11431700  *  104.5892340  *  -71.9538520  *     5     3     2
    16       H          1.11036400  *  117.8833960  *  169.2830630  *     5     3     2
    17       H          1.10545300  *  113.1613680  *   98.9869860  *     6     5     3
    18       H          1.11200200  *  110.2722080  * -143.1063160  *     6     5     3
    19       H          1.04960800  *  132.1775770  * -159.8297750  *     2     1     3
    20       H          1.11226000  *  107.4423030  *  173.7660280  *     7     3     2
    21       H          1.11185100  *  109.0555330  *   57.6558710  *     7     3     2
    22       H          1.10484600  *  108.9289300  *  -62.9810430  *     9     7     3
    23       H          1.11160400  *  108.5253690  * -176.6266520  *     9     7     3
    24       H          1.08645700  *  119.4037330  * -176.1793810  *    10     8     4
    25       H          1.09911800  *  116.3622670  *  179.0166250  *    12    11     1
    26       H          1.11045600  *  108.7848710  *   58.4378280  *    12    11     1
    27       H          1.11015000  *  109.0119990  *  -59.6243340  *    12    11     1
    28       H          1.04749200  *   67.8140070  *  106.2399650  *     2     1     3


 General Reference for PM7:
 "Optimization of Parameters for Semiempirical Methods VI: More Modifications to the 
 NDDO Approximations and Re-optimization of Parameters", J. J. P. Stewart, J. Mol. Mod., 1:32, 19 (2013)
 https://link.springer.com/article/10.1007/s00894-012-1667-x

           Empirical Formula: C10 H16 N O  =    28 atoms



      MOLECULAR POINT GROUP   :   C1  


      RHF CALCULATION, NO. OF DOUBLY OCCUPIED LEVELS = 33


          Geometry optimization using EF

  HEAT OF FORMATION        123.24219783184526    
 PARAMETERS        0.000   0.000   0.000   4.599   0.000   0.000   1.461   2.060
   0.000   1.474   0.828   4.800   1.527   1.797   4.696   1.529   1.816   0.674

   1.551   1.960   0.599   1.538   1.909   0.339   1.528   2.032   5.116   1.363

   2.105   1.076   1.223   0.563   2.185   1.509   2.016   2.578   1.114   1.925

   2.641   1.100   1.880   4.504   1.114   1.825   5.027   1.110   2.057   2.955

   1.105   1.975   1.728   1.112   1.925   3.786   1.050   2.307   3.494   1.112

   1.875   3.033   1.112   1.903   1.006   1.105   1.901   5.184   1.112   1.894

   3.200   1.086   2.084   3.208   1.099   2.031   3.124   1.110   1.899   1.020

   1.110   1.903   5.243   1.047   1.184   1.854
 GRADIENT          0.000   0.000  -0.000  26.015   0.000   0.000 -61.983  44.602
   0.000 -72.674  30.644  37.560 -16.793 -16.631 -10.914  -5.498  -0.752 -20.475

   6.776  34.857  -0.095  24.167  -1.574  -6.089  -9.217   8.251 -23.561  24.270

   9.807  -6.204  11.974  33.529  13.423  12.398 -22.436  -0.336 -10.637   0.840

  -1.961 -16.886  -5.607  -7.323  -5.873 -12.936  14.083   8.363   4.732   5.200

  -1.299   0.266  -2.775   3.234  -5.197  -1.437  -5.297   4.445   6.968  -2.940

   0.150   5.475   1.115  -1.957  -2.811  -5.600  -4.735  -1.516  -4.420   0.939

  -2.623 -10.232   0.870   1.478   5.315   1.723   0.447   2.636  -1.971   3.303

   3.628  -2.322  -3.757   1.705   5.347   2.253

          DIAGONAL MATRIX USED AS START HESSIAN

*REMARK   3 T55 = 8-Methylnonanoic acid res:    1
 PM7 CHARGE=+1 EF NOXYZ PRNT=2 PDBOUT COMPFG GRAPHF
 3034748

  O(HETATM    1  O   T55 A   1)   0.00000000 +1    0.0000000 +1    0.0000000 +1
  N(HETATM    2  N   T55 A   1)   4.59864400 +1    0.0000000 +1    0.0000000 +1     1     0     0
  C(HETATM    3  C1  T55 A   1)   1.46124600 +1  118.0097810 +1    0.0000000 +1     2     1     0
  C(HETATM    4  C2  T55 A   1)   1.47399900 +1   47.4661690 +1  -84.9731350 +1     2     1     3
  C(HETATM    5  C3  T55 A   1)   1.52717700 +1  102.9820430 +1  -90.9105180 +1     3     2     1
  C(HETATM    6  C4  T55 A   1)   1.52936800 +1  104.0506460 +1   38.5922470 +1     5     3     2
  C(HETATM    7  C5  T55 A   1)   1.55134700 +1  112.3211190 +1   34.3072550 +1     3     2     1
  C(HETATM    8  C6  T55 A   1)   1.53842000 +1  109.3681420 +1   19.4306130 +1     4     2     1
  C(HETATM    9  C7  T55 A   1)   1.52826000 +1  116.4303840 +1  -66.8565060 +1     7     3     2
  C(HETATM   10  C8  T55 A   1)   1.36349100 +1  120.6182890 +1   61.6376190 +1     8     4     2
  C(HETATM   11  C9  T55 A   1)   1.22331800 +1   32.2663400 +1  125.1930320 +1     1     2     3
  C(HETATM   12  C10 T55 A   1)   1.50919600 +1  115.4866980 +1  147.6894340 +1    11     1     2
  H(HETATM   13  H1  T55 A   1)   1.11433100 +1  110.2841580 +1  151.3284680 +1     3     2     1
  H(HETATM   14  H2  T55 A   1)   1.09984600 +1  107.7222640 +1 -101.9354330 +1     4     2     1
  H(HETATM   15 1H3  T55 A   1)   1.11431700 +1  104.5892340 +1  -71.9538520 +1     5     3     2
  H(HETATM   16 2H3  T55 A   1)   1.11036400 +1  117.8833960 +1  169.2830630 +1     5     3     2
  H(HETATM   17 1H4  T55 A   1)   1.10545300 +1  113.1613680 +1   98.9869860 +1     6     5     3
  H(HETATM   18 2H4  T55 A   1)   1.11200200 +1  110.2722080 +1 -143.1063160 +1     6     5     3
  H(HETATM   19 1H   T55 A   1)   1.04960800 +1  132.1775770 +1 -159.8297750 +1     2     1     3
  H(HETATM   20 1H5  T55 A   1)   1.11226000 +1  107.4423030 +1  173.7660280 +1     7     3     2
  H(HETATM   21 2H5  T55 A   1)   1.11185100 +1  109.0555330 +1   57.6558710 +1     7     3     2
  H(HETATM   22 1H7  T55 A   1)   1.10484600 +1  108.9289300 +1  -62.9810430 +1     9     7     3
  H(HETATM   23 2H7  T55 A   1)   1.11160400 +1  108.5253690 +1 -176.6266520 +1     9     7     3
  H(HETATM   24  H8  T55 A   1)   1.08645700 +1  119.4037330 +1 -176.1793810 +1    10     8     4
  H(HETATM   25 1H10 T55 A   1)   1.09911800 +1  116.3622670 +1  179.0166250 +1    12    11     1
  H(HETATM   26 2H10 T55 A   1)   1.11045600 +1  108.7848710 +1   58.4378280 +1    12    11     1
  H(HETATM   27 3H10 T55 A   1)   1.11015000 +1  109.0119990 +1  -59.6243340 +1    12    11     1
  H(HETATM   28 2H   T55 A   1)   1.04749200 +1   67.8140070 +1  106.2399650 +1     2     1     3

 XPARAM 
  1  1    0.0000  1  2    0.0000  1  3    0.0000  2  1    4.5986  2  2    0.0000
  2  3    0.0000  3  1    1.4612  3  2    2.0597  3  3    0.0000  4  1    1.4740
  4  2    0.8284  4  3    4.8001  5  1    1.5272  5  2    1.7974  5  3    4.6965
  6  1    1.5294  6  2    1.8160  6  3    0.6736  7  1    1.5513  7  2    1.9604
  7  3    0.5988  8  1    1.5384  8  2    1.9088  8  3    0.3391  9  1    1.5283
  9  2    2.0321  9  3    5.1163 10  1    1.3635 10  2    2.1052 10  3    1.0758
 11  1    1.2233 11  2    0.5632 11  3    2.1850 12  1    1.5092 12  2    2.0156
 12  3    2.5777 13  1    1.1143 13  2    1.9248 13  3    2.6412 14  1    1.0998
 14  2    1.8801 14  3    4.5041 15  1    1.1143 15  2    1.8254 15  3    5.0274
 16  1    1.1104 16  2    2.0575 16  3    2.9545 17  1    1.1055 17  2    1.9750
 17  3    1.7276 18  1    1.1120 18  2    1.9246 18  3    3.7855 19  1    1.0496
 19  2    2.3069 19  3    3.4936 20  1    1.1123 20  2    1.8752 20  3    3.0328
 21  1    1.1119 21  2    1.9034 21  3    1.0063 22  1    1.1048 22  2    1.9012
 22  3    5.1840 23  1    1.1116 23  2    1.8941 23  3    3.2005 24  1    1.0865
 24  2    2.0840 24  3    3.2083 25  1    1.0991 25  2    2.0309 25  3    3.1244
 26  1    1.1105 26  2    1.8987 26  3    1.0199 27  1    1.1101 27  2    1.9026
 27  3    5.2425 28  1    1.0475 28  2    1.1836 28  3    1.8542
 grad
       0.00000    0.00000   -0.00000   26.01468    0.00000    0.00000  -61.98295   44.60179
       0.00000  -72.67363   30.64417   37.56049  -16.79275  -16.63059  -10.91366   -5.49815
      -0.75223  -20.47533    6.77556   34.85671   -0.09529   24.16691   -1.57378   -6.08883
      -9.21725    8.25145  -23.56134   24.26951    9.80742   -6.20383   11.97432   33.52877
      13.42342   12.39758  -22.43562   -0.33615  -10.63658    0.84020   -1.96149  -16.88555
      -5.60734   -7.32298   -5.87345  -12.93633   14.08342    8.36277    4.73209    5.19993
      -1.29910    0.26585   -2.77505    3.23385   -5.19736   -1.43679   -5.29738    4.44450
       6.96783   -2.93951    0.14970    5.47482    1.11522   -1.95719   -2.81058   -5.60016
      -4.73477   -1.51563   -4.42026    0.93878   -2.62286  -10.23202    0.86987    1.47793
       5.31501    1.72286    0.44656    2.63633   -1.97108    3.30288    3.62840   -2.32202
      -3.75676    1.70541    5.34656    2.25284
 CYCLE:     1 TIME:   0.014 TIME LEFT:  2.00D  GRAD.:   149.017 HEAT:  123.2422

          HESSIAN HAS  0 NEGATIVE EIGENVALUE(S)
  MIN SEARCH, CORRECT HESSIAN, TRYING PURE NR STEP
 LAMBDA THAT MINIMIZES ALONG ALL MODES =        0.000000000
 PURE NR-STEP HAS LENGTH   0.33668
 LAMBDA THAT MINIMIZES ALONG ALL MODES =      -34.982213876
 P-RFO-STEP   HAS LENGTH   0.29717
 LAMBDA THAT MINIMIZES ALONG ALL MODES =     -197.931585366
 QA/TRIM-STEP HAS LENGTH   0.20000

  HEAT OF FORMATION        161.27123862039298    
 PARAMETERS       -0.000   0.015  -0.015   4.577   0.010   0.022   1.514   2.007
  -0.003   1.523   0.797   4.703   1.530   1.834   4.721   1.533   1.829   0.722

   1.545   1.922   0.597   1.518   1.923   0.352   1.524   2.033   5.173   1.341

   2.103   1.087   1.208   0.527   2.147   1.493   2.060   2.576   1.122   1.927

   2.644   1.111   1.892   4.521   1.116   1.848   4.990   1.101   2.054   2.940

   1.106   1.978   1.733   1.107   1.936   3.787   1.052   2.304   3.474   1.113

   1.879   3.017   1.110   1.910   1.012   1.106   1.912   5.186   1.113   1.896

   3.205   1.093   2.086   3.203   1.093   2.032   3.122   1.108   1.905   1.010

   1.104   1.910   5.250   1.045   1.179   1.847
 GRADIENT          0.000  -0.000  -0.000 -63.534   0.000   0.000-209.929-810.751
   0.000-122.216-141.144 -95.217  42.926 172.380   6.314 -13.062  80.731  83.255

 -41.634-638.040-106.500 -40.561-292.292 509.326 138.144-203.271 331.679 151.483

-317.540   7.327  22.241-102.848 -32.349 -17.805  12.831   3.361  -2.365   5.542

  -1.903   3.804  -6.495  19.332  -1.451 -10.000   5.070   1.241   7.569   3.077

   9.584  -6.792   9.523   4.902  -5.317  -5.785   3.895  -5.704   2.703  -1.258

  -1.657   0.271  -2.851   0.158  -4.618 -40.671  18.659  27.824 -17.565  15.273

  -7.555 -33.201  29.718  17.391   0.679  -2.827   0.848  -0.116  -1.980   2.378

  -1.440  -3.344  -3.093   2.891   2.165   4.512
       HoF         ACTUAL,  PREDICTED ENERGY CHANGE, RATIO
   161.2712386    38.0290408         -16.6597380   -2.2826914
 UNACCEPTABLE RATIO, REJECTING STEP, REDUCING DMAX TO 0.1000
  MIN SEARCH, CORRECT HESSIAN, TRYING PURE NR STEP
 LAMBDA THAT MINIMIZES ALONG ALL MODES =        0.000000000
 PURE NR-STEP HAS LENGTH   0.33668
 LAMBDA THAT MINIMIZES ALONG ALL MODES =      -34.982213876
 P-RFO-STEP   HAS LENGTH   0.29717
 LAMBDA THAT MINIMIZES ALONG ALL MODES =     -800.270061414
 QA/TRIM-STEP HAS LENGTH   0.10000

  HEAT OF FORMATION        123.68124421351240    
 PARAMETERS        0.001   0.009  -0.008   4.585   0.006   0.011   1.497   2.032
  -0.001   1.505   0.811   4.761   1.528   1.816   4.707   1.532   1.823   0.693

   1.548   1.940   0.598   1.526   1.917   0.344   1.524   2.031   5.139   1.349

   2.104   1.081   1.213   0.544   2.169   1.498   2.039   2.577   1.119   1.926

   2.642   1.107   1.886   4.511   1.115   1.837   5.013   1.104   2.056   2.949

   1.106   1.977   1.730   1.108   1.930   3.786   1.051   2.305   3.486   1.112

   1.877   3.027   1.111   1.907   1.008   1.105   1.906   5.185   1.113   1.895

   3.202   1.091   2.085   3.206   1.095   2.031   3.123   1.109   1.902   1.016

   1.105   1.906   5.246   1.046   1.181   1.851
 GRADIENT          0.000  -0.000  -0.000 -14.818   0.000   0.000 -70.019-229.531
   0.000 -57.806 -25.199 -69.947  25.729 107.698 -17.347 -13.347  59.537  33.119

  -8.483-200.513  -3.199   0.021 -60.563 177.760  28.061 -55.499 113.301  48.801

-107.686  18.401   7.803 -28.118  -6.606  -3.838  -8.338   1.358  -5.359   4.187

  -1.847  -3.759  -6.075   6.890  -3.916 -11.081  10.070   4.151   5.917   4.533

   4.517  -2.785   3.591   4.036  -5.393  -4.170   0.871  -0.832   4.117  -2.427

  -0.489   3.377  -0.767  -0.958  -3.678 -18.029   4.289   9.989 -10.275   6.984

  -6.251 -18.646  12.431   6.331   2.226  -0.034   0.597   0.824  -2.163   2.969

   0.014  -3.050  -3.548   3.049   3.637   3.665
       HoF         ACTUAL,  PREDICTED ENERGY CHANGE, RATIO
   123.6812442     0.4390464         -10.8026160   -0.0406426
 UNACCEPTABLE RATIO, REJECTING STEP, REDUCING DMAX TO 0.0500
  MIN SEARCH, CORRECT HESSIAN, TRYING PURE NR STEP
 LAMBDA THAT MINIMIZES ALONG ALL MODES =        0.000000000
 PURE NR-STEP HAS LENGTH   0.33668
 LAMBDA THAT MINIMIZES ALONG ALL MODES =      -34.982213876
 P-RFO-STEP   HAS LENGTH   0.29717
 LAMBDA THAT MINIMIZES ALONG ALL MODES =    -2141.245413468
 QA/TRIM-STEP HAS LENGTH   0.05000

  HEAT OF FORMATION        119.45365465437499    
 PARAMETERS        0.001   0.005  -0.004   4.591   0.003   0.005   1.482   2.046
  -0.000   1.492   0.819   4.783   1.527   1.806   4.701   1.531   1.820   0.682

   1.549   1.951   0.599   1.531   1.913   0.341   1.525   2.032   5.126   1.355

   2.105   1.078   1.217   0.554   2.178   1.503   2.027   2.577   1.117   1.925

   2.642   1.104   1.883   4.507   1.115   1.831   5.021   1.107   2.057   2.952

   1.106   1.976   1.729   1.110   1.927   3.786   1.050   2.306   3.490   1.112

   1.876   3.030   1.111   1.905   1.007   1.105   1.904   5.184   1.112   1.895

   3.201   1.089   2.085   3.207   1.097   2.031   3.124   1.110   1.900   1.018

   1.107   1.904   5.244   1.046   1.183   1.853
 GRADIENT          0.000   0.000  -0.000   7.196   0.000   0.000 -46.388 -48.663
   0.000 -56.850   2.486 -19.955   7.714  53.157 -17.951 -10.432  34.187   6.519

   1.421 -52.423   4.850  15.510 -14.224  59.397   1.545 -13.932  29.930  26.679

 -34.426   6.425   7.098   4.887   4.327   3.884 -16.269   0.498  -7.646   2.836

  -1.892  -9.644  -5.791  -0.134  -4.994 -11.956  12.222   6.071   5.223   4.957

   1.606  -1.057   0.296   3.541  -5.287  -2.873  -1.779   1.776   5.355  -2.796

  -0.062   4.605   0.202  -1.489  -3.227 -10.523  -1.072   3.264  -6.819   3.376

  -4.284 -13.444   5.499   3.376   3.540   0.896   0.518   1.608  -2.122   3.174

   1.490  -2.748  -3.687   2.625   4.506   3.074
       HoF         ACTUAL,  PREDICTED ENERGY CHANGE, RATIO
   119.4536547    -3.7885432          -6.1483535    0.6161882
     STEPSIZE USED IS  0.05000
 CALCULATED STEP
     0.000737  0.004537 -0.004007 -0.007592  0.002992  0.005118  0.020808 -0.013324
    -0.000411  0.017562 -0.008975 -0.016701  0.000116  0.008930  0.004311  0.001878
     0.003699  0.008403 -0.001899 -0.009774 -0.000231 -0.007101  0.004073  0.002294
    -0.002805 -0.000572  0.009766 -0.008073 -0.000335  0.002074 -0.005962 -0.009496
    -0.006897 -0.006311  0.011544 -0.000192  0.002671  0.000591  0.000531  0.003940
     0.002928  0.002810  0.000229  0.005672 -0.006329 -0.003490 -0.000900 -0.002522
     0.000054  0.000860  0.000877 -0.002186  0.002812  0.000305  0.000666 -0.000817
    -0.003292  0.000067  0.000830 -0.002650 -0.000441  0.001742  0.000891  0.000086
     0.002559  0.000334  0.000475  0.000522  0.000810  0.002334  0.000549 -0.000943
    -0.002587  0.000230 -0.000499 -0.000931  0.001746 -0.001721 -0.002874  0.001642
     0.001294 -0.001000 -0.001066 -0.001351
     NEW TRUST RADIUS =  0.07071

     HESSIAN IS BEING UPDATED USING THE BFGS UPDATE

*REMARK   3 T55 = 8-Methylnonanoic acid res:    1
 PM7 CHARGE=+1 EF NOXYZ PRNT=2 PDBOUT COMPFG GRAPHF
 3034748

  O(HETATM    1  O   T55 A   1)   0.00073727 +1    0.0045367 +1   -0.0040067 +1
  N(HETATM    2  N   T55 A   1)   4.59105219 +1    0.1714519 +1    0.2932490 +1     1     0     0
  C(HETATM    3  C1  T55 A   1)   1.48205353 +1  117.2463508 +1   -0.0235543 +1     2     1     0
  C(HETATM    4  C2  T55 A   1)   1.49156074 +1   46.9519140 +1  -85.9300355 +1     2     1     3
  C(HETATM    5  C3  T55 A   1)   1.52729271 +1  103.4936905 +1  -90.6635372 +1     3     2     1
  C(HETATM    6  C4  T55 A   1)   1.53124583 +1  104.2625872 +1   39.0736825 +1     5     3     2
  C(HETATM    7  C5  T55 A   1)   1.54944769 +1  111.7611204 +1   34.2940039 +1     3     2     1
  C(HETATM    8  C6  T55 A   1)   1.53131885 +1  109.6014958 +1   19.5620684 +1     4     2     1
  C(HETATM    9  C7  T55 A   1)   1.52545516 +1  116.3975849 +1  -66.2969492 +1     7     3     2
  C(HETATM   10  C8  T55 A   1)   1.35541849 +1  120.5990836 +1   61.7564578 +1     8     4     2
  C(HETATM   11  C9  T55 A   1)   1.21735641 +1   31.7222351 +1  124.7978460 +1     1     2     3
  C(HETATM   12  C10 T55 A   1)   1.50288515 +1  116.1481122 +1  147.6784586 +1    11     1     2
  H(HETATM   13  H1  T55 A   1)   1.11700219 +1  110.3179941 +1  151.3588756 +1     3     2     1
  H(HETATM   14  H2  T55 A   1)   1.10378561 +1  107.8900200 +1 -101.7744089 +1     4     2     1
  H(HETATM   15 1H3  T55 A   1)   1.11454588 +1  104.9142281 +1  -72.3164629 +1     5     3     2
  H(HETATM   16 2H3  T55 A   1)   1.10687419 +1  117.8318130 +1  169.1385787 +1     5     3     2
  H(HETATM   17 1H4  T55 A   1)   1.10550691 +1  113.2106455 +1   99.0372230 +1     6     5     3
  H(HETATM   18 2H4  T55 A   1)   1.10981645 +1  110.4333359 +1 -143.0888188 +1     6     5     3
  H(HETATM   19 1H   T55 A   1)   1.05027433 +1  132.1307489 +1 -160.0184172 +1     2     1     3
  H(HETATM   20 1H5  T55 A   1)   1.11232685 +1  107.4898642 +1  173.6142100 +1     7     3     2
  H(HETATM   21 2H5  T55 A   1)   1.11141002 +1  109.1553330 +1   57.7069065 +1     7     3     2
  H(HETATM   22 1H7  T55 A   1)   1.10493216 +1  109.0755448 +1  -62.9619136 +1     9     7     3
  H(HETATM   23 2H7  T55 A   1)   1.11207876 +1  108.5552750 +1 -176.5802515 +1     9     7     3
  H(HETATM   24  H8  T55 A   1)   1.08879056 +1  119.4352140 +1 -176.2333912 +1    10     8     4
  H(HETATM   25 1H10 T55 A   1)   1.09653130 +1  116.3754616 +1  178.9880369 +1    12    11     1
  H(HETATM   26 2H10 T55 A   1)   1.10952523 +1  108.8849342 +1   58.3391941 +1    12    11     1
  H(HETATM   27 3H10 T55 A   1)   1.10727580 +1  109.1060635 +1  -59.5501965 +1    12    11     1
  H(HETATM   28 2H   T55 A   1)   1.04649202 +1   67.7529047 +1  106.1625615 +1     2     1     3

 XPARAM 
  1  1    0.0007  1  2    0.0045  1  3   -0.0040  2  1    4.5911  2  2    0.0030
  2  3    0.0051  3  1    1.4821  3  2    2.0463  3  3   -0.0004  4  1    1.4916
  4  2    0.8195  4  3    4.7834  5  1    1.5273  5  2    1.8063  5  3    4.7008
  6  1    1.5312  6  2    1.8197  6  3    0.6820  7  1    1.5494  7  2    1.9506
  7  3    0.5985  8  1    1.5313  8  2    1.9129  8  3    0.3414  9  1    1.5255
  9  2    2.0315  9  3    5.1261 10  1    1.3554 10  2    2.1049 10  3    1.0779
 11  1    1.2174 11  2    0.5537 11  3    2.1781 12  1    1.5029 12  2    2.0272
 12  3    2.5775 13  1    1.1170 13  2    1.9254 13  3    2.6417 14  1    1.1038
 14  2    1.8830 14  3    4.5069 15  1    1.1145 15  2    1.8311 15  3    5.0210
 16  1    1.1069 16  2    2.0566 16  3    2.9520 17  1    1.1055 17  2    1.9759
 17  3    1.7285 18  1    1.1098 18  2    1.9274 18  3    3.7858 19  1    1.0503
 19  2    2.3061 19  3    3.4903 20  1    1.1123 20  2    1.8761 20  3    3.0301
 21  1    1.1114 21  2    1.9051 21  3    1.0072 22  1    1.1049 22  2    1.9037
 22  3    5.1843 23  1    1.1121 23  2    1.8946 23  3    3.2013 24  1    1.0888
 24  2    2.0845 24  3    3.2073 25  1    1.0965 25  2    2.0311 25  3    3.1239
 26  1    1.1095 26  2    1.9004 26  3    1.0182 27  1    1.1073 27  2    1.9043
 27  3    5.2438 28  1    1.0465 28  2    1.1825 28  3    1.8529
 grad
       0.00000    0.00000   -0.00000    7.19551    0.00000    0.00000  -46.38767  -48.66300
       0.00000  -56.85032    2.48593  -19.95529    7.71390   53.15712  -17.95142  -10.43167
      34.18713    6.51913    1.42108  -52.42278    4.84969   15.50968  -14.22410   59.39704
       1.54460  -13.93215   29.92970   26.67881  -34.42593    6.42517    7.09833    4.88749
       4.32708    3.88433  -16.26943    0.49825   -7.64567    2.83614   -1.89183   -9.64398
      -5.79114   -0.13390   -4.99369  -11.95581   12.22200    6.07071    5.22339    4.95696
       1.60567   -1.05661    0.29593    3.54093   -5.28717   -2.87339   -1.77895    1.77625
       5.35494   -2.79614   -0.06221    4.60465    0.20155   -1.48920   -3.22661  -10.52274
      -1.07156    3.26397   -6.81905    3.37600   -4.28401  -13.44377    5.49890    3.37599
       3.54040    0.89614    0.51850    1.60793   -2.12247    3.17361    1.49027   -2.74795
      -3.68701    2.62532    4.50567    3.07367
 CYCLE:     2 TIME:   0.032 TIME LEFT:  2.00D  GRAD.:   155.330 HEAT:  119.4537

          HESSIAN HAS  0 NEGATIVE EIGENVALUE(S)
  MIN SEARCH, CORRECT HESSIAN, TRYING PURE NR STEP
 LAMBDA THAT MINIMIZES ALONG ALL MODES =        0.000000000
 PURE NR-STEP HAS LENGTH   0.66276
 LAMBDA THAT MINIMIZES ALONG ALL MODES =      -50.907756399
 P-RFO-STEP   HAS LENGTH   0.48905
 LAMBDA THAT MINIMIZES ALONG ALL MODES =    -1319.230044248
 QA/TRIM-STEP HAS LENGTH   0.07071

  HEAT OF FORMATION        122.97276246887486    
 PARAMETERS        0.001   0.003  -0.003   4.581   0.001   0.016   1.516   2.048
   0.001   1.522   0.812   4.783   1.523   1.795   4.714   1.536   1.807   0.687

   1.547   1.958   0.598   1.520   1.918   0.320   1.520   2.037   5.122   1.339

   2.114   1.078   1.208   0.542   2.175   1.494   2.041   2.579   1.121   1.924

   2.643   1.110   1.888   4.509   1.115   1.840   5.012   1.101   2.054   2.949

   1.105   1.976   1.729   1.106   1.932   3.788   1.051   2.305   3.486   1.113

   1.876   3.027   1.111   1.906   1.010   1.107   1.907   5.184   1.114   1.894

   3.204   1.094   2.083   3.206   1.092   2.031   3.124   1.108   1.902   1.016

   1.103   1.907   5.247   1.044   1.179   1.851
 GRADIENT          0.000  -0.000  -0.000 -39.222   0.000   0.000  74.513 240.047
   0.000  57.942   2.641 -50.305  -8.123  32.769  -2.309 -11.503   1.840   9.014

  19.154 168.287  25.346  67.021 138.024-237.772 -37.038  50.409 -75.706 -61.810

  86.849  -3.307   4.425 -61.573 -18.661 -10.633  -6.226   1.318  -3.036   5.841

  -2.915  -6.044  -1.504   4.189  -3.802 -11.619   9.954   2.720   4.422   5.693

   0.427   0.625  -0.269  -1.216  -1.534   1.953   2.694   1.359   3.319  -3.265

   0.434   4.534  -0.620  -1.015  -3.092  -0.458  -6.588  -3.501   2.417  -4.020

   4.529  -3.875  -9.340   2.394   0.676  -0.460   0.501  -0.098  -2.679   2.981

  -1.600  -3.399  -3.529   4.529   3.774   4.365
       HoF         ACTUAL,  PREDICTED ENERGY CHANGE, RATIO
   122.9727625     3.5191078          -7.6864092   -0.4578351
 UNACCEPTABLE RATIO, REJECTING STEP, REDUCING DMAX TO 0.0354
  MIN SEARCH, CORRECT HESSIAN, TRYING PURE NR STEP
 LAMBDA THAT MINIMIZES ALONG ALL MODES =        0.000000000
 PURE NR-STEP HAS LENGTH   0.66276
 LAMBDA THAT MINIMIZES ALONG ALL MODES =      -50.907756399
 P-RFO-STEP   HAS LENGTH   0.48905
 LAMBDA THAT MINIMIZES ALONG ALL MODES =    -2948.271896161
 QA/TRIM-STEP HAS LENGTH   0.03536

  HEAT OF FORMATION        118.81203831503080    
 PARAMETERS        0.001   0.003  -0.003   4.587   0.001   0.010   1.498   2.049
   0.000   1.507   0.817   4.785   1.524   1.799   4.707   1.533   1.812   0.684

   1.548   1.956   0.598   1.526   1.915   0.330   1.522   2.035   5.123   1.347

   2.110   1.078   1.213   0.549   2.177   1.499   2.033   2.578   1.119   1.925

   2.642   1.107   1.885   4.508   1.115   1.835   5.017   1.104   2.055   2.950

   1.105   1.976   1.729   1.108   1.929   3.787   1.051   2.305   3.488   1.113

   1.876   3.029   1.111   1.905   1.008   1.106   1.905   5.184   1.113   1.894

   3.203   1.092   2.083   3.207   1.095   2.031   3.124   1.109   1.901   1.017

   1.105   1.906   5.245   1.045   1.181   1.852
 GRADIENT          0.000   0.000  -0.000 -12.369   0.000   0.000  28.397 148.912
   0.000   7.874   9.967 -30.739  -4.324  33.504  -8.200 -10.480  11.760   4.823

  13.876 100.333  20.119  45.409  79.359-124.915 -25.267  31.069 -43.689 -27.211

  46.214  -0.229   4.467 -24.093  -5.682  -2.512 -12.035   0.854  -5.439   4.316

  -2.434  -8.360  -3.415   1.309  -4.425 -11.924  11.198   4.505   4.695   5.401

   0.561   0.072  -0.449   0.862  -3.174   0.020   0.286   1.844   4.425  -3.031

   0.213   4.659  -0.141  -1.269  -3.157  -4.064  -4.548  -0.957  -0.950  -1.289

   1.143  -7.298  -3.333   2.605   2.221   0.316   0.512   0.801  -2.396   3.093

   0.081  -3.041  -3.614   3.604   4.227   3.729
       HoF         ACTUAL,  PREDICTED ENERGY CHANGE, RATIO
   118.8120383    -0.6416163          -4.2145927    0.1522369
     STEPSIZE USED IS  0.03536
 CALCULATED STEP
     0.000243 -0.001349  0.000755 -0.004231 -0.001511  0.005009  0.016017  0.003057
     0.000745  0.015134 -0.002923  0.001524 -0.002835 -0.007345  0.006085  0.002243
    -0.007598  0.001841 -0.001253  0.005293 -0.000186 -0.005631  0.001955 -0.011382
    -0.003031  0.003226 -0.003037 -0.008181  0.004997 -0.000089 -0.004263 -0.005104
    -0.001089 -0.003999  0.006056  0.000704  0.002100 -0.000618  0.000781  0.002770
     0.002161  0.001015  0.000483  0.004350 -0.004114 -0.002694 -0.001516 -0.001555
    -0.000438  0.000087  0.000386 -0.001824  0.001901  0.000933  0.000227 -0.000712
    -0.001900  0.000216  0.000101 -0.001478 -0.000320  0.000331  0.001171  0.001372
     0.001219 -0.000393  0.001057 -0.000652  0.001382  0.002925 -0.001065 -0.000794
    -0.001921 -0.000265 -0.000042 -0.000755  0.000461 -0.000922 -0.001865  0.001271
     0.001379 -0.001028 -0.001613 -0.000675
     NEW TRUST RADIUS =  0.03536
*REMARK   3 T55 = 8-Methylnonanoic acid res:    1
 PM7 CHARGE=+1 EF NOXYZ PRNT=2 PDBOUT COMPFG GRAPHF
 3034748

  O(HETATM    1  O   T55 A   1)   0.00098044 +1    0.0031876 +1   -0.0032521 +1
  N(HETATM    2  N   T55 A   1)   4.58682130 +1    0.0848653 +1    0.5802505 +1     1     0     0
  C(HETATM    3  C1  T55 A   1)   1.49807032 +1  117.4215165 +1    0.0191276 +1     2     1     0
  C(HETATM    4  C2  T55 A   1)   1.50669437 +1   46.7844189 +1  -85.8426917 +1     2     1     3
  C(HETATM    5  C3  T55 A   1)   1.52445818 +1  103.0728749 +1  -90.3148891 +1     3     2     1
  C(HETATM    6  C4  T55 A   1)   1.53348849 +1  103.8272424 +1   39.1791684 +1     5     3     2
  C(HETATM    7  C5  T55 A   1)   1.54819510 +1  112.0643720 +1   34.2833745 +1     3     2     1
  C(HETATM    8  C6  T55 A   1)   1.52568759 +1  109.7134842 +1   18.9099076 +1     4     2     1
  C(HETATM    9  C7  T55 A   1)   1.52242417 +1  116.5824096 +1  -66.4709315 +1     7     3     2
  C(HETATM   10  C8  T55 A   1)   1.34723785 +1  120.8853795 +1   61.7513572 +1     8     4     2
  C(HETATM   11  C9  T55 A   1)   1.21309309 +1   31.4298055 +1  124.7354730 +1     1     2     3
  C(HETATM   12  C10 T55 A   1)   1.49888579 +1  116.4950787 +1  147.7188178 +1    11     1     2
  H(HETATM   13  H1  T55 A   1)   1.11910189 +1  110.2825775 +1  151.4036371 +1     3     2     1
  H(HETATM   14  H2  T55 A   1)   1.10655571 +1  108.0138266 +1 -101.7162521 +1     4     2     1
  H(HETATM   15 1H3  T55 A   1)   1.11502851 +1  105.1634628 +1  -72.5521931 +1     5     3     2
  H(HETATM   16 2H3  T55 A   1)   1.10418001 +1  117.7449805 +1  169.0494840 +1     5     3     2
  H(HETATM   17 1H4  T55 A   1)   1.10506864 +1  113.2156259 +1   99.0593427 +1     6     5     3
  H(HETATM   18 2H4  T55 A   1)   1.10799199 +1  110.5422651 +1 -143.0353586 +1     6     5     3
  H(HETATM   19 1H   T55 A   1)   1.05050104 +1  132.0899478 +1 -160.1273064 +1     2     1     3
  H(HETATM   20 1H5  T55 A   1)   1.11254280 +1  107.4956547 +1  173.5295392 +1     7     3     2
  H(HETATM   21 2H5  T55 A   1)   1.11108966 +1  109.1743205 +1   57.7740173 +1     7     3     2
  H(HETATM   22 1H7  T55 A   1)   1.10630461 +1  109.1454160 +1  -62.9844173 +1     9     7     3
  H(HETATM   23 2H7  T55 A   1)   1.11313569 +1  108.5179069 +1 -176.5010553 +1     9     7     3
  H(HETATM   24  H8  T55 A   1)   1.09171564 +1  119.3741908 +1 -176.2788958 +1    10     8     4
  H(HETATM   25 1H10 T55 A   1)   1.09461056 +1  116.3602815 +1  178.9856067 +1    12    11     1
  H(HETATM   26 2H10 T55 A   1)   1.10877042 +1  108.9113331 +1   58.2863473 +1    12    11     1
  H(HETATM   27 3H10 T55 A   1)   1.10541072 +1  109.1788813 +1  -59.4711859 +1    12    11     1
  H(HETATM   28 2H   T55 A   1)   1.04546364 +1   67.6604713 +1  106.1239049 +1     2     1     3

 XPARAM 
  1  1    0.0010  1  2    0.0032  1  3   -0.0033  2  1    4.5868  2  2    0.0015
  2  3    0.0101  3  1    1.4981  3  2    2.0494  3  3    0.0003  4  1    1.5067
  4  2    0.8165  4  3    4.7849  5  1    1.5245  5  2    1.7990  5  3    4.7069
  6  1    1.5335  6  2    1.8121  6  3    0.6838  7  1    1.5482  7  2    1.9559
  7  3    0.5984  8  1    1.5257  8  2    1.9149  8  3    0.3300  9  1    1.5224
  9  2    2.0347  9  3    5.1230 10  1    1.3472 10  2    2.1098 10  3    1.0778
 11  1    1.2131 11  2    0.5486 11  3    2.1770 12  1    1.4989 12  2    2.0332
 12  3    2.5782 13  1    1.1191 13  2    1.9248 13  3    2.6425 14  1    1.1066
 14  2    1.8852 14  3    4.5079 15  1    1.1150 15  2    1.8354 15  3    5.0169
 16  1    1.1042 16  2    2.0550 16  3    2.9505 17  1    1.1051 17  2    1.9760
 17  3    1.7289 18  1    1.1080 18  2    1.9293 18  3    3.7867 19  1    1.0505
 19  2    2.3054 19  3    3.4884 20  1    1.1125 20  2    1.8762 20  3    3.0287
 21  1    1.1111 21  2    1.9055 21  3    1.0083 22  1    1.1063 22  2    1.9049
 22  3    5.1839 23  1    1.1131 23  2    1.8940 23  3    3.2027 24  1    1.0917
 24  2    2.0835 24  3    3.2065 25  1    1.0946 25  2    2.0309 25  3    3.1239
 26  1    1.1088 26  2    1.9009 26  3    1.0173 27  1    1.1054 27  2    1.9055
 27  3    5.2452 28  1    1.0455 28  2    1.1809 28  3    1.8522
 grad
       0.00000    0.00000   -0.00000  -12.36942    0.00000    0.00000   28.39737  148.91171
       0.00000    7.87423    9.96690  -30.73853   -4.32432   33.50421   -8.20008  -10.47984
      11.75986    4.82265   13.87625  100.33348   20.11879   45.40911   79.35944 -124.91525
     -25.26723   31.06896  -43.68893  -27.21100   46.21372   -0.22903    4.46690  -24.09338
      -5.68195   -2.51186  -12.03511    0.85406   -5.43925    4.31642   -2.43383   -8.36045
      -3.41546    1.30932   -4.42520  -11.92381   11.19816    4.50537    4.69451    5.40146
       0.56132    0.07157   -0.44871    0.86168   -3.17407    0.02033    0.28573    1.84444
       4.42525   -3.03081    0.21298    4.65857   -0.14072   -1.26914   -3.15711   -4.06363
      -4.54806   -0.95659   -0.94958   -1.28944    1.14299   -7.29837   -3.33331    2.60528
       2.22114    0.31631    0.51212    0.80103   -2.39610    3.09252    0.08087   -3.04082
      -3.61442    3.60398    4.22694    3.72909
 CYCLE:     3 TIME:   0.017 TIME LEFT:  2.00D  GRAD.:   261.335 HEAT:  118.8120

          HESSIAN HAS  0 NEGATIVE EIGENVALUE(S)
  MIN SEARCH, CORRECT HESSIAN, TRYING PURE NR STEP
 LAMBDA THAT MINIMIZES ALONG ALL MODES =        0.000000000
 PURE NR-STEP HAS LENGTH   0.43231
 LAMBDA THAT MINIMIZES ALONG ALL MODES =      -31.474815324
 P-RFO-STEP   HAS LENGTH   0.36438
 LAMBDA THAT MINIMIZES ALONG ALL MODES =    -2264.677438304
 QA/TRIM-STEP HAS LENGTH   0.03536

  HEAT OF FORMATION        116.36215491624171    
 PARAMETERS        0.001   0.010  -0.007   4.587   0.005   0.011   1.504   2.038
  -0.001   1.513   0.817   4.794   1.521   1.785   4.711   1.537   1.808   0.680

   1.546   1.954   0.592   1.517   1.909   0.340   1.523   2.035   5.124   1.347

   2.113   1.075   1.210   0.556   2.175   1.498   2.042   2.577   1.121   1.925

   2.643   1.109   1.888   4.507   1.116   1.841   5.012   1.102   2.054   2.948

   1.105   1.977   1.729   1.107   1.932   3.787   1.050   2.306   3.486   1.113

   1.877   3.026   1.111   1.907   1.009   1.108   1.907   5.183   1.114   1.895

   3.203   1.095   2.084   3.205   1.093   2.032   3.123   1.108   1.903   1.016

   1.104   1.907   5.246   1.044   1.180   1.850
 GRADIENT         -0.000   0.000  -0.000   4.250   0.000   0.000 -41.425 -16.207
   0.000 -16.568  52.895  15.627 -39.888 -55.884  21.370   0.794 -48.200 -18.561

   4.080   1.076  -2.278  11.166  11.367   0.813  -7.306  -2.065  -1.342  -1.090

  -6.537  -1.477  -5.461  -1.686   1.770  -1.410 -13.084   0.515  -3.536   4.020

  -2.566 -10.047  -0.449  -3.307  -3.880 -11.664  10.655   3.255   4.191   5.891

  -3.053   3.042  -4.858  -2.688  -0.347   3.582   1.639   1.131   3.675  -2.768

   0.479   4.490  -0.240  -1.118  -3.001  -5.923  -2.999   0.538  -4.286   1.882

  -3.189  -8.724   2.141   1.902   1.259   0.531   0.466   0.376  -2.044   2.884

  -0.796  -2.679  -3.354   3.440   4.749   3.130
       HoF         ACTUAL,  PREDICTED ENERGY CHANGE, RATIO
   116.3621549    -2.4498834          -4.0984113    0.5977642
     STEPSIZE USED IS  0.03536
 CALCULATED STEP
     0.000386  0.006423 -0.003860  0.000638  0.003782  0.000956  0.005801 -0.011283
    -0.000955  0.006623  0.000532  0.009506 -0.003215 -0.014084  0.004566  0.003973
    -0.004573 -0.003710 -0.001784 -0.002223 -0.006047 -0.008993 -0.006308  0.010015
     0.000695  0.000058  0.000580 -0.000653  0.003472 -0.002561 -0.003223  0.007309
    -0.001682 -0.001356  0.009258 -0.001250  0.001998 -0.000215  0.000498  0.002429
     0.002700 -0.000712  0.000775  0.005410 -0.005276 -0.002188 -0.000813 -0.002531
    -0.000433  0.001456 -0.000401 -0.001343  0.002644  0.000241 -0.000109  0.000342
    -0.002388  0.000599  0.001060 -0.002323  0.000052  0.001872  0.000933  0.001673
     0.001837 -0.000978  0.000984  0.000591  0.000326  0.003194  0.000514 -0.001654
    -0.001406  0.000834 -0.000603 -0.000358  0.002201 -0.001706 -0.001198  0.001911
     0.001118 -0.001217 -0.000436 -0.001940
     NEW TRUST RADIUS =  0.05000
*REMARK   3 T55 = 8-Methylnonanoic acid res:    1
 PM7 CHARGE=+1 EF NOXYZ PRNT=2 PDBOUT COMPFG GRAPHF
 3034748

  O(HETATM    1  O   T55 A   1)   0.00136603 +1    0.0096103 +1   -0.0071120 +1
  N(HETATM    2  N   T55 A   1)   4.58745930 +1    0.3015457 +1    0.6350432 +1     1     0     0
  C(HETATM    3  C1  T55 A   1)   1.50387148 +1  116.7750349 +1   -0.0355899 +1     2     1     0
  C(HETATM    4  C2  T55 A   1)   1.51331696 +1   46.8149040 +1  -85.2980299 +1     2     1     3
  C(HETATM    5  C3  T55 A   1)   1.52124310 +1  102.2659168 +1  -90.0532717 +1     3     2     1
  C(HETATM    6  C4  T55 A   1)   1.53746127 +1  103.5652034 +1   38.9665943 +1     5     3     2
  C(HETATM    7  C5  T55 A   1)   1.54641070 +1  111.9370044 +1   33.9368914 +1     3     2     1
  C(HETATM    8  C6  T55 A   1)   1.51669451 +1  109.3520368 +1   19.4837207 +1     4     2     1
  C(HETATM    9  C7  T55 A   1)   1.52311940 +1  116.5857111 +1  -66.4377135 +1     7     3     2
  C(HETATM   10  C8  T55 A   1)   1.34658473 +1  121.0843089 +1   61.6046377 +1     8     4     2
  C(HETATM   11  C9  T55 A   1)   1.20986964 +1   31.8485969 +1  124.6390834 +1     1     2     3
  C(HETATM   12  C10 T55 A   1)   1.49752943 +1  117.0254948 +1  147.6472036 +1    11     1     2
  H(HETATM   13  H1  T55 A   1)   1.12109963 +1  110.2702421 +1  151.4321783 +1     3     2     1
  H(HETATM   14  H2  T55 A   1)   1.10898456 +1  108.1685138 +1 -101.7570462 +1     4     2     1
  H(HETATM   15 1H3  T55 A   1)   1.11580310 +1  105.4734578 +1  -72.8544842 +1     5     3     2
  H(HETATM   16 2H3  T55 A   1)   1.10199165 +1  117.6984129 +1  168.9044900 +1     5     3     2
  H(HETATM   17 1H4  T55 A   1)   1.10463572 +1  113.2990574 +1   99.0363396 +1     6     5     3
  H(HETATM   18 2H4  T55 A   1)   1.10664935 +1  110.6937468 +1 -143.0215328 +1     6     5     3
  H(HETATM   19 1H   T55 A   1)   1.05039224 +1  132.1095653 +1 -160.2641533 +1     2     1     3
  H(HETATM   20 1H5  T55 A   1)   1.11314200 +1  107.5564078 +1  173.3964325 +1     7     3     2
  H(HETATM   21 2H5  T55 A   1)   1.11114178 +1  109.2815827 +1   57.8274904 +1     7     3     2
  H(HETATM   22 1H7  T55 A   1)   1.10797765 +1  109.2506768 +1  -63.0404556 +1     9     7     3
  H(HETATM   23 2H7  T55 A   1)   1.11411943 +1  108.5517862 +1 -176.4823526 +1     9     7     3
  H(HETATM   24  H8  T55 A   1)   1.09490956 +1  119.4036619 +1 -176.3736820 +1    10     8     4
  H(HETATM   25 1H10 T55 A   1)   1.09320454 +1  116.4080748 +1  178.9510672 +1    12    11     1
  H(HETATM   26 2H10 T55 A   1)   1.10841255 +1  109.0374454 +1   58.1885950 +1    12    11     1
  H(HETATM   27 3H10 T55 A   1)   1.10421248 +1  109.2883786 +1  -59.4071507 +1    12    11     1
  H(HETATM   28 2H   T55 A   1)   1.04424646 +1   67.6355181 +1  106.0127536 +1     2     1     3

 XPARAM 
  1  1    0.0014  1  2    0.0096  1  3   -0.0071  2  1    4.5875  2  2    0.0053
  2  3    0.0111  3  1    1.5039  3  2    2.0381  3  3   -0.0006  4  1    1.5133
  4  2    0.8171  4  3    4.7945  5  1    1.5212  5  2    1.7849  5  3    4.7115
  6  1    1.5375  6  2    1.8076  6  3    0.6801  7  1    1.5464  7  2    1.9537
  7  3    0.5923  8  1    1.5167  8  2    1.9086  8  3    0.3401  9  1    1.5231
  9  2    2.0348  9  3    5.1236 10  1    1.3466 10  2    2.1133 10  3    1.0752
 11  1    1.2099 11  2    0.5559 11  3    2.1754 12  1    1.4975 12  2    2.0425
 12  3    2.5769 13  1    1.1211 13  2    1.9246 13  3    2.6430 14  1    1.1090
 14  2    1.8879 14  3    4.5072 15  1    1.1158 15  2    1.8409 15  3    5.0116
 16  1    1.1020 16  2    2.0542 16  3    2.9479 17  1    1.1046 17  2    1.9774
 17  3    1.7285 18  1    1.1066 18  2    1.9320 18  3    3.7870 19  1    1.0504
 19  2    2.3057 19  3    3.4860 20  1    1.1131 20  2    1.8772 20  3    3.0263
 21  1    1.1111 21  2    1.9073 21  3    1.0093 22  1    1.1080 22  2    1.9068
 22  3    5.1829 23  1    1.1141 23  2    1.8946 23  3    3.2030 24  1    1.0949
 24  2    2.0840 24  3    3.2049 25  1    1.0932 25  2    2.0317 25  3    3.1233
 26  1    1.1084 26  2    1.9031 26  3    1.0156 27  1    1.1042 27  2    1.9074
 27  3    5.2463 28  1    1.0442 28  2    1.1805 28  3    1.8503
 grad
      -0.00000    0.00000   -0.00000    4.24983    0.00000    0.00000  -41.42490  -16.20658
       0.00000  -16.56782   52.89527   15.62665  -39.88810  -55.88403   21.36987    0.79449
     -48.20012  -18.56110    4.07994    1.07597   -2.27794   11.16628   11.36677    0.81269
      -7.30592   -2.06450   -1.34208   -1.08955   -6.53746   -1.47682   -5.46057   -1.68577
       1.76954   -1.41024  -13.08357    0.51485   -3.53614    4.01998   -2.56629  -10.04709
      -0.44928   -3.30702   -3.88002  -11.66377   10.65516    3.25510    4.19065    5.89084
      -3.05291    3.04179   -4.85766   -2.68791   -0.34655    3.58228    1.63947    1.13063
       3.67451   -2.76790    0.47884    4.48983   -0.23961   -1.11831   -3.00050   -5.92297
      -2.99851    0.53815   -4.28571    1.88155   -3.18859   -8.72437    2.14064    1.90223
       1.25926    0.53094    0.46566    0.37603   -2.04444    2.88430   -0.79630   -2.67937
      -3.35395    3.43964    4.74944    3.13027
 CYCLE:     4 TIME:   0.011 TIME LEFT:  2.00D  GRAD.:   120.733 HEAT:  116.3622

          HESSIAN HAS  0 NEGATIVE EIGENVALUE(S)
  MIN SEARCH, CORRECT HESSIAN, TRYING PURE NR STEP
 LAMBDA THAT MINIMIZES ALONG ALL MODES =        0.000000000
 PURE NR-STEP HAS LENGTH   0.23532
 LAMBDA THAT MINIMIZES ALONG ALL MODES =      -16.511067780
 P-RFO-STEP   HAS LENGTH   0.21992
 LAMBDA THAT MINIMIZES ALONG ALL MODES =    -1184.381928207
 QA/TRIM-STEP HAS LENGTH   0.05000

  HEAT OF FORMATION        117.73486716709886    
 PARAMETERS        0.001   0.010  -0.009   4.587   0.007   0.016   1.517   2.033
  -0.001   1.515   0.792   4.797   1.529   1.799   4.702   1.538   1.825   0.687

   1.542   1.948   0.590   1.505   1.894   0.346   1.522   2.033   5.123   1.347

   2.115   1.074   1.208   0.562   2.175   1.495   2.052   2.576   1.122   1.922

   2.645   1.113   1.889   4.508   1.116   1.849   5.003   1.099   2.051   2.943

   1.105   1.976   1.731   1.106   1.933   3.785   1.048   2.305   3.483   1.114

   1.877   3.023   1.111   1.908   1.012   1.109   1.909   5.182   1.115   1.894

   3.205   1.099   2.083   3.203   1.091   2.031   3.123   1.108   1.905   1.013

   1.102   1.909   5.249   1.042   1.177   1.848
 GRADIENT         -0.000   0.000  -0.000   9.316   0.000   0.000 -25.523-107.078
   0.000 -66.365 -82.648  -1.501  24.424  84.503 -34.876  -9.342  52.957   9.659

  -7.541-104.037 -35.126  -1.898 -85.194 104.814  11.906 -38.764  33.216  32.076

 -61.538  -7.215  -4.921  21.373   5.958  -1.787 -13.947  -2.058  -2.240   4.957

  -1.782  -3.278  -2.935   1.547  -2.632  -9.322   9.294   0.938   5.579   5.180

   1.868  -0.315   1.095   3.011  -4.665  -4.911   2.549   0.790   1.926  -2.982

   0.505   4.341  -0.801  -1.294  -2.857  -4.779  -4.280  -2.244  -8.515   4.564

  -9.431  -8.921   6.736   0.564  -0.457   0.193   0.465  -0.564  -2.052   2.593

  -2.143  -2.052  -2.934   1.366   1.784   3.800
       HoF         ACTUAL,  PREDICTED ENERGY CHANGE, RATIO
   117.7348672     1.3727123          -3.9682709   -0.3459220
 UNACCEPTABLE RATIO, REJECTING STEP, REDUCING DMAX TO 0.0250
  MIN SEARCH, CORRECT HESSIAN, TRYING PURE NR STEP
 LAMBDA THAT MINIMIZES ALONG ALL MODES =        0.000000000
 PURE NR-STEP HAS LENGTH   0.23532
 LAMBDA THAT MINIMIZES ALONG ALL MODES =      -16.511067780
 P-RFO-STEP   HAS LENGTH   0.21992
 LAMBDA THAT MINIMIZES ALONG ALL MODES =    -3075.290642726
 QA/TRIM-STEP HAS LENGTH   0.02500

  HEAT OF FORMATION        115.64223851703719    
 PARAMETERS        0.001   0.009  -0.008   4.587   0.006   0.013   1.511   2.036
  -0.001   1.514   0.805   4.794   1.526   1.794   4.707   1.537   1.817   0.684

   1.544   1.950   0.592   1.511   1.902   0.343   1.522   2.034   5.124   1.347

   2.114   1.075   1.209   0.558   2.175   1.496   2.046   2.577   1.122   1.923

   2.644   1.111   1.888   4.508   1.116   1.844   5.008   1.100   2.053   2.946

   1.105   1.977   1.730   1.106   1.932   3.786   1.049   2.305   3.485   1.113

   1.877   3.025   1.111   1.908   1.010   1.109   1.908   5.183   1.114   1.894

   3.204   1.097   2.083   3.204   1.092   2.032   3.123   1.108   1.904   1.015

   1.103   1.908   5.247   1.043   1.179   1.849
 GRADIENT         -0.000   0.000  -0.000   5.541   0.000   0.000 -23.600 -49.926
   0.000 -41.687 -24.420  -1.244   0.717  35.567 -12.531  -7.076  15.939   1.485

  -1.383 -47.758 -17.391   6.335 -33.717  48.465   1.495 -19.350  15.489  14.020

 -33.079  -3.642  -4.575   7.849   3.606  -1.936 -13.326  -0.805  -2.967   4.602

  -2.214  -6.071  -2.177  -0.125  -3.311 -10.440  10.039   2.168   4.965   5.481

   0.046   0.864  -1.214   0.807  -2.951  -1.282   1.985   0.871   2.847  -2.899

   0.450   4.401  -0.585  -1.196  -3.008  -5.767  -3.388  -0.401  -6.306   3.223

  -5.991  -9.045   4.629   1.505   0.417   0.314   0.475  -0.101  -2.108   2.771

  -1.460  -2.403  -3.193   2.433   3.267   3.578
       HoF         ACTUAL,  PREDICTED ENERGY CHANGE, RATIO
   115.6422385    -0.7199164          -2.2827632    0.3153706
     STEPSIZE USED IS  0.02500
 CALCULATED STEP
    -0.000191 -0.000273 -0.001133 -0.000368  0.000563  0.002264  0.006980 -0.001832
    -0.000045  0.000386 -0.012474 -0.000654  0.004760  0.009096 -0.004545 -0.000226
     0.009414  0.003632 -0.002313 -0.003326 -0.000627 -0.005437 -0.006322  0.003319
    -0.000818 -0.000739  0.000635  0.000219  0.000266 -0.000188 -0.000773  0.001871
    -0.000192 -0.001574  0.003742 -0.000249  0.000505 -0.001266  0.000705  0.001647
     0.000320  0.000499  0.000078  0.003425 -0.003454 -0.001610 -0.001346 -0.001907
     0.000123 -0.000700  0.001071 -0.000342  0.000281 -0.000910 -0.001092 -0.000398
    -0.001286  0.000106 -0.000161 -0.001493 -0.000235  0.000316  0.000881  0.000550
     0.000826 -0.000348  0.000340 -0.000503  0.000766  0.001664 -0.000524 -0.000799
    -0.001084 -0.000187 -0.000245 -0.000429  0.000607 -0.001011 -0.000898  0.000761
     0.000986 -0.001347 -0.001411 -0.001131
     NEW TRUST RADIUS =  0.02500
*REMARK   3 T55 = 8-Methylnonanoic acid res:    1
 PM7 CHARGE=+1 EF NOXYZ PRNT=2 PDBOUT COMPFG GRAPHF
 3034748

  O(HETATM    1  O   T55 A   1)   0.00117516 +1    0.0093372 +1   -0.0082450 +1
  N(HETATM    2  N   T55 A   1)   4.58709137 +1    0.3338228 +1    0.7647787 +1     1     0     0
  C(HETATM    3  C1  T55 A   1)   1.51085174 +1  116.6700811 +1   -0.0381823 +1     2     1     0
  C(HETATM    4  C2  T55 A   1)   1.51370334 +1   46.1001715 +1  -85.3355264 +1     2     1     3
  C(HETATM    5  C3  T55 A   1)   1.52600303 +1  102.7870992 +1  -90.3136772 +1     3     2     1
  C(HETATM    6  C4  T55 A   1)   1.53723488 +1  104.1045623 +1   39.1746682 +1     5     3     2
  C(HETATM    7  C5  T55 A   1)   1.54409785 +1  111.7464470 +1   33.9009938 +1     3     2     1
  C(HETATM    8  C6  T55 A   1)   1.51125721 +1  108.9898069 +1   19.6738941 +1     4     2     1
  C(HETATM    9  C7  T55 A   1)   1.52230125 +1  116.5433731 +1  -66.4013246 +1     7     3     2
  C(HETATM   10  C8  T55 A   1)   1.34680336 +1  121.0995632 +1   61.5938418 +1     8     4     2
  C(HETATM   11  C9  T55 A   1)   1.20909693 +1   31.9557841 +1  124.6281030 +1     1     2     3
  C(HETATM   12  C10 T55 A   1)   1.49595525 +1  117.2398687 +1  147.6329609 +1    11     1     2
  H(HETATM   13  H1  T55 A   1)   1.12160475 +1  110.1977062 +1  151.4725989 +1     3     2     1
  H(HETATM   14  H2  T55 A   1)   1.11063127 +1  108.1868699 +1 -101.7284463 +1     4     2     1
  H(HETATM   15 1H3  T55 A   1)   1.11588130 +1  105.6696952 +1  -73.0524098 +1     5     3     2
  H(HETATM   16 2H3  T55 A   1)   1.10038149 +1  117.6212968 +1  168.7952166 +1     5     3     2
  H(HETATM   17 1H4  T55 A   1)   1.10475898 +1  113.2589643 +1   99.0977014 +1     6     5     3
  H(HETATM   18 2H4  T55 A   1)   1.10630752 +1  110.7098566 +1 -143.0736924 +1     6     5     3
  H(HETATM   19 1H   T55 A   1)   1.04929981 +1  132.0867713 +1 -160.3378374 +1     2     1     3
  H(HETATM   20 1H5  T55 A   1)   1.11324838 +1  107.5471643 +1  173.3108823 +1     7     3     2
  H(HETATM   21 2H5  T55 A   1)   1.11090725 +1  109.2996923 +1   57.8779756 +1     7     3     2
  H(HETATM   22 1H7  T55 A   1)   1.10852786 +1  109.2980104 +1  -63.0603929 +1     9     7     3
  H(HETATM   23 2H7  T55 A   1)   1.11445979 +1  108.5229608 +1 -176.4384646 +1     9     7     3
  H(HETATM   24  H8  T55 A   1)   1.09657376 +1  119.3736187 +1 -176.4194459 +1    10     8     4
  H(HETATM   25 1H10 T55 A   1)   1.09212030 +1  116.3973425 +1  178.9370411 +1    12    11     1
  H(HETATM   26 2H10 T55 A   1)   1.10798390 +1  109.0722362 +1   58.1306874 +1    12    11     1
  H(HETATM   27 3H10 T55 A   1)   1.10331406 +1  109.3319693 +1  -59.3506669 +1    12    11     1
  H(HETATM   28 2H   T55 A   1)   1.04289933 +1   67.5546524 +1  105.9479248 +1     2     1     3

 XPARAM 
  1  1    0.0012  1  2    0.0093  1  3   -0.0082  2  1    4.5871  2  2    0.0058
  2  3    0.0133  3  1    1.5109  3  2    2.0363  3  3   -0.0007  4  1    1.5137
  4  2    0.8046  4  3    4.7938  5  1    1.5260  5  2    1.7940  5  3    4.7069
  6  1    1.5372  6  2    1.8170  6  3    0.6837  7  1    1.5441  7  2    1.9503
  7  3    0.5917  8  1    1.5113  8  2    1.9022  8  3    0.3434  9  1    1.5223
  9  2    2.0341  9  3    5.1243 10  1    1.3468 10  2    2.1136 10  3    1.0750
 11  1    1.2091 11  2    0.5577 11  3    2.1752 12  1    1.4960 12  2    2.0462
 12  3    2.5767 13  1    1.1216 13  2    1.9233 13  3    2.6437 14  1    1.1106
 14  2    1.8882 14  3    4.5077 15  1    1.1159 15  2    1.8443 15  3    5.0082
 16  1    1.1004 16  2    2.0529 16  3    2.9460 17  1    1.1048 17  2    1.9767
 17  3    1.7296 18  1    1.1063 18  2    1.9323 18  3    3.7861 19  1    1.0493
 19  2    2.3053 19  3    3.4848 20  1    1.1132 20  2    1.8771 20  3    3.0248
 21  1    1.1109 21  2    1.9076 21  3    1.0102 22  1    1.1085 22  2    1.9076
 22  3    5.1826 23  1    1.1145 23  2    1.8941 23  3    3.2038 24  1    1.0966
 24  2    2.0835 24  3    3.2041 25  1    1.0921 25  2    2.0315 25  3    3.1230
 26  1    1.1080 26  2    1.9037 26  3    1.0146 27  1    1.1033 27  2    1.9082
 27  3    5.2473 28  1    1.0429 28  2    1.1791 28  3    1.8491
 grad
      -0.00000    0.00000   -0.00000    5.54101    0.00000    0.00000  -23.59979  -49.92643
       0.00000  -41.68714  -24.42006   -1.24413    0.71671   35.56736  -12.53071   -7.07638
      15.93885    1.48509   -1.38317  -47.75802  -17.39089    6.33461  -33.71693   48.46535
       1.49485  -19.35045   15.48915   14.01963  -33.07872   -3.64150   -4.57453    7.84861
       3.60614   -1.93636  -13.32635   -0.80483   -2.96701    4.60180   -2.21440   -6.07067
      -2.17656   -0.12477   -3.31133  -10.43968   10.03888    2.16796    4.96497    5.48095
       0.04579    0.86383   -1.21420    0.80683   -2.95117   -1.28228    1.98478    0.87086
       2.84699   -2.89888    0.44983    4.40101   -0.58548   -1.19620   -3.00778   -5.76666
      -3.38751   -0.40065   -6.30597    3.22267   -5.99133   -9.04456    4.62934    1.50520
       0.41690    0.31382    0.47509   -0.10079   -2.10804    2.77082   -1.46010   -2.40290
      -3.19341    2.43267    3.26672    3.57843
 CYCLE:     5 TIME:   0.018 TIME LEFT:  2.00D  GRAD.:   127.169 HEAT:  115.6422

          HESSIAN HAS  0 NEGATIVE EIGENVALUE(S)
  MIN SEARCH, CORRECT HESSIAN, TRYING PURE NR STEP
 LAMBDA THAT MINIMIZES ALONG ALL MODES =        0.000000000
 PURE NR-STEP HAS LENGTH   0.14151
 LAMBDA THAT MINIMIZES ALONG ALL MODES =       -6.257769043
 P-RFO-STEP   HAS LENGTH   0.13778
 LAMBDA THAT MINIMIZES ALONG ALL MODES =    -1402.654689879
 QA/TRIM-STEP HAS LENGTH   0.02500

  HEAT OF FORMATION        114.43976183178165    
 PARAMETERS        0.001   0.007  -0.011   4.585   0.004   0.017   1.520   2.037
  -0.001   1.522   0.804   4.795   1.526   1.787   4.709   1.539   1.816   0.684

   1.542   1.953   0.596   1.505   1.902   0.342   1.520   2.037   5.124   1.344

   2.118   1.076   1.208   0.556   2.174   1.494   2.052   2.576   1.122   1.921

   2.645   1.113   1.889   4.508   1.116   1.850   5.001   1.098   2.050   2.942

   1.105   1.976   1.730   1.105   1.933   3.786   1.048   2.304   3.482   1.114

   1.876   3.022   1.111   1.908   1.012   1.109   1.909   5.183   1.116   1.893

   3.206   1.099   2.082   3.203   1.091   2.031   3.122   1.108   1.904   1.012

   1.102   1.909   5.249   1.041   1.177   1.847
 GRADIENT         -0.000   0.000  -0.000   0.682   0.000   0.000   6.495  32.004
   0.000 -13.783  -9.512  -5.466  -4.691  19.165  -6.998  -5.277   2.963  -1.092

   5.118  19.493  -3.635  11.878   6.806 -21.030 -11.112   3.276 -12.334  -9.782

  -1.079  -3.885  -4.925  -1.870   0.616  -4.483 -10.737  -0.453  -2.050   5.068

  -2.854  -5.336  -0.777  -0.040  -2.714  -9.753   9.193   0.773   4.812   5.639

  -0.651   1.549  -1.656  -0.674  -1.828   0.091   2.199   0.702   2.441  -2.929

   0.444   4.074  -0.992  -1.000  -2.885  -4.058  -3.775  -0.905  -3.076   0.864

  -2.625  -5.871   1.441   1.792  -0.467  -0.038   0.460  -0.598  -2.118   2.555

  -2.280  -2.484  -2.968   2.213   3.197   3.667
       HoF         ACTUAL,  PREDICTED ENERGY CHANGE, RATIO
   114.4397618    -1.2024767          -1.3956263    0.8616036
     STEPSIZE USED IS  0.02500
 CALCULATED STEP
    -0.000300 -0.002142 -0.002595 -0.002093 -0.002236  0.003497  0.009378  0.000445
    -0.000821  0.008699 -0.000211  0.001191  0.000497 -0.007149  0.001599  0.001500
    -0.001163  0.000748 -0.001874  0.002405  0.004149 -0.006599  0.000140 -0.001512
    -0.002596  0.002624  0.000025 -0.003248  0.004665  0.000912 -0.000863 -0.001792
    -0.001611 -0.002020  0.005791 -0.000696  0.000874 -0.002763  0.001122  0.002233
     0.000776 -0.000079  0.000249  0.005732 -0.006824 -0.002143 -0.002891 -0.003911
    -0.000168 -0.001147  0.000851 -0.001054  0.000965 -0.000488 -0.001590 -0.000913
    -0.002406  0.000418 -0.000572 -0.003177 -0.000174  0.000166  0.001536  0.000902
     0.001819 -0.000028  0.001262 -0.001425  0.002161  0.002863 -0.001665 -0.001458
    -0.001338 -0.000521 -0.000687 -0.000438  0.000679 -0.002159 -0.001036  0.001210
     0.001693 -0.001781 -0.002446 -0.002598
     NEW TRUST RADIUS =  0.03536
*REMARK   3 T55 = 8-Methylnonanoic acid res:    1
 PM7 CHARGE=+1 EF NOXYZ PRNT=2 PDBOUT COMPFG GRAPHF
 3034748

  O(HETATM    1  O   T55 A   1)   0.00087509 +1    0.0071956 +1   -0.0108396 +1
  N(HETATM    2  N   T55 A   1)   4.58499821 +1    0.2056842 +1    0.9651198 +1     1     0     0
  C(HETATM    3  C1  T55 A   1)   1.52022959 +1  116.6955583 +1   -0.0852154 +1     2     1     0
  C(HETATM    4  C2  T55 A   1)   1.52240246 +1   46.0880815 +1  -85.2672984 +1     2     1     3
  C(HETATM    5  C3  T55 A   1)   1.52649997 +1  102.3774850 +1  -90.2220838 +1     3     2     1
  C(HETATM    6  C4  T55 A   1)   1.53873521 +1  104.0379289 +1   39.2175377 +1     5     3     2
  C(HETATM    7  C5  T55 A   1)   1.54222425 +1  111.8842670 +1   34.1387267 +1     3     2     1
  C(HETATM    8  C6  T55 A   1)   1.50465795 +1  108.9978036 +1   19.5872378 +1     4     2     1
  C(HETATM    9  C7  T55 A   1)   1.51970485 +1  116.6937278 +1  -66.3998964 +1     7     3     2
  C(HETATM   10  C8  T55 A   1)   1.34355511 +1  121.3668429 +1   61.6461093 +1     8     4     2
  C(HETATM   11  C9  T55 A   1)   1.20823387 +1   31.8531042 +1  124.5358087 +1     1     2     3
  C(HETATM   12  C10 T55 A   1)   1.49393531 +1  117.5716904 +1  147.5931007 +1    11     1     2
  H(HETATM   13  H1  T55 A   1)   1.12247834 +1  110.0394148 +1  151.5368626 +1     3     2     1
  H(HETATM   14  H2  T55 A   1)   1.11286416 +1  108.2313295 +1 -101.7329667 +1     4     2     1
  H(HETATM   15 1H3  T55 A   1)   1.11612997 +1  105.9981298 +1  -73.4433888 +1     5     3     2
  H(HETATM   16 2H3  T55 A   1)   1.09823851 +1  117.4556360 +1  168.5711531 +1     5     3     2
  H(HETATM   17 1H4  T55 A   1)   1.10459128 +1  113.1932547 +1   99.1464642 +1     6     5     3
  H(HETATM   18 2H4  T55 A   1)   1.10525383 +1  110.7651450 +1 -143.1016461 +1     6     5     3
  H(HETATM   19 1H   T55 A   1)   1.04770972 +1  132.0344393 +1 -160.4757010 +1     2     1     3
  H(HETATM   20 1H5  T55 A   1)   1.11366642 +1  107.5143953 +1  173.1288563 +1     7     3     2
  H(HETATM   21 2H5  T55 A   1)   1.11073348 +1  109.3091817 +1   57.9659540 +1     7     3     2
  H(HETATM   22 1H7  T55 A   1)   1.10942964 +1  109.4022359 +1  -63.0619890 +1     9     7     3
  H(HETATM   23 2H7  T55 A   1)   1.11572139 +1  108.4413046 +1 -176.3146344 +1     9     7     3
  H(HETATM   24  H8  T55 A   1)   1.09943666 +1  119.2782084 +1 -176.5029736 +1    10     8     4
  H(HETATM   25 1H10 T55 A   1)   1.09078265 +1  116.3674658 +1  178.8976852 +1    12    11     1
  H(HETATM   26 2H10 T55 A   1)   1.10754540 +1  109.1111476 +1   58.0069848 +1    12    11     1
  H(HETATM   27 3H10 T55 A   1)   1.10227781 +1  109.4013166 +1  -59.2536467 +1    12    11     1
  H(HETATM   28 2H   T55 A   1)   1.04111870 +1   67.4145067 +1  105.7990931 +1     2     1     3

 XPARAM 
  1  1    0.0009  1  2    0.0072  1  3   -0.0108  2  1    4.5850  2  2    0.0036
  2  3    0.0168  3  1    1.5202  3  2    2.0367  3  3   -0.0015  4  1    1.5224
  4  2    0.8044  4  3    4.7950  5  1    1.5265  5  2    1.7868  5  3    4.7085
  6  1    1.5387  6  2    1.8158  6  3    0.6845  7  1    1.5422  7  2    1.9527
  7  3    0.5958  8  1    1.5047  8  2    1.9024  8  3    0.3419  9  1    1.5197
  9  2    2.0367  9  3    5.1243 10  1    1.3436 10  2    2.1183 10  3    1.0759
 11  1    1.2082 11  2    0.5559 11  3    2.1736 12  1    1.4939 12  2    2.0520
 12  3    2.5760 13  1    1.1225 13  2    1.9206 13  3    2.6448 14  1    1.1129
 14  2    1.8890 14  3    4.5076 15  1    1.1161 15  2    1.8500 15  3    5.0014
 16  1    1.0982 16  2    2.0500 16  3    2.9421 17  1    1.1046 17  2    1.9756
 17  3    1.7304 18  1    1.1053 18  2    1.9332 18  3    3.7856 19  1    1.0477
 19  2    2.3044 19  3    3.4824 20  1    1.1137 20  2    1.8765 20  3    3.0217
 21  1    1.1107 21  2    1.9078 21  3    1.0117 22  1    1.1094 22  2    1.9094
 22  3    5.1825 23  1    1.1157 23  2    1.8927 23  3    3.2059 24  1    1.0994
 24  2    2.0818 24  3    3.2026 25  1    1.0908 25  2    2.0310 25  3    3.1224
 26  1    1.1075 26  2    1.9043 26  3    1.0124 27  1    1.1023 27  2    1.9094
 27  3    5.2490 28  1    1.0411 28  2    1.1766 28  3    1.8465
 grad
      -0.00000    0.00000   -0.00000    0.68213    0.00000    0.00000    6.49476   32.00359
       0.00000  -13.78254   -9.51218   -5.46612   -4.69053   19.16547   -6.99784   -5.27743
       2.96296   -1.09190    5.11834   19.49345   -3.63498   11.87799    6.80633  -21.02956
     -11.11180    3.27640  -12.33411   -9.78151   -1.07925   -3.88473   -4.92451   -1.86965
       0.61586   -4.48340  -10.73702   -0.45263   -2.04975    5.06825   -2.85394   -5.33583
      -0.77736   -0.04004   -2.71391   -9.75304    9.19251    0.77271    4.81227    5.63934
      -0.65125    1.54886   -1.65611   -0.67434   -1.82819    0.09129    2.19878    0.70170
       2.44124   -2.92854    0.44422    4.07397   -0.99221   -1.00030   -2.88533   -4.05825
      -3.77458   -0.90479   -3.07628    0.86367   -2.62492   -5.87073    1.44055    1.79216
      -0.46749   -0.03830    0.45958   -0.59822   -2.11785    2.55549   -2.27951   -2.48408
      -2.96848    2.21301    3.19651    3.66693
 CYCLE:     6 TIME:   0.016 TIME LEFT:  2.00D  GRAD.:    63.082 HEAT:  114.4398

          HESSIAN HAS  0 NEGATIVE EIGENVALUE(S)
  MIN SEARCH, CORRECT HESSIAN, TRYING PURE NR STEP
 LAMBDA THAT MINIMIZES ALONG ALL MODES =        0.000000000
 PURE NR-STEP HAS LENGTH   0.12700
 LAMBDA THAT MINIMIZES ALONG ALL MODES =       -4.021935888
 P-RFO-STEP   HAS LENGTH   0.12469
 LAMBDA THAT MINIMIZES ALONG ALL MODES =     -638.147332533
 QA/TRIM-STEP HAS LENGTH   0.03536

  HEAT OF FORMATION        113.50465964175237    
 PARAMETERS        0.000   0.006  -0.016   4.582   0.003   0.022   1.525   2.030
  -0.003   1.530   0.805   4.795   1.527   1.779   4.710   1.541   1.820   0.688

   1.538   1.949   0.602   1.497   1.903   0.340   1.519   2.037   5.127   1.345

   2.127   1.078   1.209   0.555   2.170   1.493   2.062   2.575   1.123   1.915

   2.648   1.116   1.889   4.508   1.116   1.860   4.989   1.096   2.045   2.934

   1.105   1.973   1.733   1.104   1.934   3.784   1.045   2.304   3.479   1.115

   1.876   3.016   1.111   1.909   1.015   1.111   1.913   5.182   1.117   1.891

   3.209   1.103   2.079   3.200   1.090   2.031   3.121   1.107   1.906   1.009

   1.102   1.912   5.252   1.039   1.173   1.841
 GRADIENT         -0.000   0.000  -0.000  -4.232   0.000   0.000  -9.820  -8.967
   0.000  -5.817  10.964  -8.100  -9.608  -1.351   0.140  -0.908  -7.870  -2.881

   0.590  -7.864   2.679   4.778  11.452  -4.593  -9.163  -4.134   6.623  -3.797

  -7.505   1.695  -2.312 -13.291  -2.879  -5.885  -6.332  -0.107  -1.626   4.475

  -3.409  -4.764   0.729  -0.180  -1.894  -8.533   7.863  -1.029   4.894   5.363

  -1.170   1.890  -1.847  -1.892  -0.988   0.892   1.549   0.084   2.074  -2.588

  -0.052   3.063  -1.343  -0.960  -2.578  -5.404  -1.657   1.027  -3.098   1.485

  -2.588  -4.562   1.378   2.429  -1.153  -0.366   0.424  -0.880  -1.876   2.163

  -2.816  -2.341  -2.540   1.022   3.206   3.005
       HoF         ACTUAL,  PREDICTED ENERGY CHANGE, RATIO
   113.5046596    -0.9351022          -1.0616337    0.8808144
     STEPSIZE USED IS  0.03536
 CALCULATED STEP
    -0.000397 -0.001165 -0.005204 -0.002608 -0.001027  0.005613  0.004738 -0.007008
    -0.001446  0.007389  0.000234  0.000026  0.000701 -0.008307  0.001081  0.001872
     0.004223  0.003408 -0.004029 -0.004087  0.006518 -0.007593  0.000579 -0.001657
    -0.001002  0.000746  0.002968  0.001625  0.008380  0.002338  0.000584 -0.001257
    -0.003566 -0.001099  0.010055 -0.000993  0.000610 -0.005300  0.002982  0.002738
     0.000254 -0.000074  0.000104  0.009637 -0.012258 -0.002143 -0.005082 -0.007965
     0.000009 -0.002185  0.002196 -0.000921  0.001217 -0.001535 -0.003016 -0.000935
    -0.003679  0.000887 -0.000771 -0.005802  0.000164  0.000706  0.003013  0.001374
     0.003105 -0.000183  0.001435 -0.001739  0.003536  0.003651 -0.002647 -0.002986
    -0.001191 -0.000339 -0.001272 -0.000164  0.001799 -0.003907 -0.000657  0.002164
     0.003080 -0.002577 -0.003691 -0.005291
     NEW TRUST RADIUS =  0.05000
*REMARK   3 T55 = 8-Methylnonanoic acid res:    1
 PM7 CHARGE=+1 EF NOXYZ PRNT=2 PDBOUT COMPFG GRAPHF
 3034748

  O(HETATM    1  O   T55 A   1)   0.00047825 +1    0.0060309 +1   -0.0160432 +1
  N(HETATM    2  N   T55 A   1)   4.58238982 +1    0.1468245 +1    1.2867242 +1     1     0     0
  C(HETATM    3  C1  T55 A   1)   1.52496756 +1  116.2940162 +1   -0.1680501 +1     2     1     0
  C(HETATM    4  C2  T55 A   1)   1.52979196 +1   46.1015082 +1  -85.2658172 +1     2     1     3
  C(HETATM    5  C3  T55 A   1)   1.52720132 +1  101.9015077 +1  -90.1601538 +1     3     2     1
  C(HETATM    6  C4  T55 A   1)   1.54060759 +1  104.2798797 +1   39.4127915 +1     5     3     2
  C(HETATM    7  C5  T55 A   1)   1.53819488 +1  111.6500737 +1   34.5121971 +1     3     2     1
  C(HETATM    8  C6  T55 A   1)   1.49706483 +1  109.0309828 +1   19.4922988 +1     4     2     1
  C(HETATM    9  C7  T55 A   1)   1.51870265 +1  116.7364445 +1  -66.2298458 +1     7     3     2
  C(HETATM   10  C8  T55 A   1)   1.34518020 +1  121.8469792 +1   61.7800615 +1     8     4     2
  C(HETATM   11  C9  T55 A   1)   1.20881796 +1   31.7810997 +1  124.3315143 +1     1     2     3
  C(HETATM   12  C10 T55 A   1)   1.49283632 +1  118.1477797 +1  147.5361894 +1    11     1     2
  H(HETATM   13  H1  T55 A   1)   1.12308803 +1  109.7357247 +1  151.7077337 +1     3     2     1
  H(HETATM   14  H2  T55 A   1)   1.11560245 +1  108.2458722 +1 -101.7372234 +1     4     2     1
  H(HETATM   15 1H3  T55 A   1)   1.11623416 +1  106.5503147 +1  -74.1457381 +1     5     3     2
  H(HETATM   16 2H3  T55 A   1)   1.09609537 +1  117.1644701 +1  168.1147973 +1     5     3     2
  H(HETATM   17 1H4  T55 A   1)   1.10460053 +1  113.0680523 +1   99.2722591 +1     6     5     3
  H(HETATM   18 2H4  T55 A   1)   1.10433298 +1  110.8348938 +1 -143.1896075 +1     6     5     3
  H(HETATM   19 1H   T55 A   1)   1.04469417 +1  131.9808556 +1 -160.6864968 +1     2     1     3
  H(HETATM   20 1H5  T55 A   1)   1.11455354 +1  107.4702216 +1  172.7964269 +1     7     3     2
  H(HETATM   21 2H5  T55 A   1)   1.11089729 +1  109.3496045 +1   58.1385760 +1     7     3     2
  H(HETATM   22 1H7  T55 A   1)   1.11080366 +1  109.5801498 +1  -63.0724842 +1     9     7     3
  H(HETATM   23 2H7  T55 A   1)   1.11715596 +1  108.3416664 +1 -176.1120470 +1     9     7     3
  H(HETATM   24  H8  T55 A   1)   1.10308784 +1  119.1265321 +1 -176.6740611 +1    10     8     4
  H(HETATM   25 1H10 T55 A   1)   1.08959153 +1  116.3480193 +1  178.8247919 +1    12    11     1
  H(HETATM   26 2H10 T55 A   1)   1.10738140 +1  109.2142097 +1   57.7831393 +1    12    11     1
  H(HETATM   27 3H10 T55 A   1)   1.10162118 +1  109.5253203 +1  -59.0771854 +1    12    11     1
  H(HETATM   28 2H   T55 A   1)   1.03854193 +1   67.2030109 +1  105.4959578 +1     2     1     3

 XPARAM 
  1  1    0.0005  1  2    0.0060  1  3   -0.0160  2  1    4.5824  2  2    0.0026
  2  3    0.0225  3  1    1.5250  3  2    2.0297  3  3   -0.0029  4  1    1.5298
  4  2    0.8046  4  3    4.7950  5  1    1.5272  5  2    1.7785  5  3    4.7096
  6  1    1.5406  6  2    1.8200  6  3    0.6879  7  1    1.5382  7  2    1.9487
  7  3    0.6024  8  1    1.4971  8  2    1.9029  8  3    0.3402  9  1    1.5187
  9  2    2.0374  9  3    5.1273 10  1    1.3452 10  2    2.1266 10  3    1.0783
 11  1    1.2088 11  2    0.5547 11  3    2.1700 12  1    1.4928 12  2    2.0621
 12  3    2.5750 13  1    1.1231 13  2    1.9152 13  3    2.6478 14  1    1.1156
 14  2    1.8892 14  3    4.5075 15  1    1.1162 15  2    1.8597 15  3    4.9891
 16  1    1.0961 16  2    2.0449 16  3    2.9342 17  1    1.1046 17  2    1.9734
 17  3    1.7326 18  1    1.1043 18  2    1.9344 18  3    3.7841 19  1    1.0447
 19  2    2.3035 19  3    3.4787 20  1    1.1146 20  2    1.8757 20  3    3.0159
 21  1    1.1109 21  2    1.9085 21  3    1.0147 22  1    1.1108 22  2    1.9125
 22  3    5.1824 23  1    1.1172 23  2    1.8909 23  3    3.2095 24  1    1.1031
 24  2    2.0792 24  3    3.1996 25  1    1.0896 25  2    2.0307 25  3    3.1211
 26  1    1.1074 26  2    1.9061 26  3    1.0085 27  1    1.1016 27  2    1.9116
 27  3    5.2521 28  1    1.0385 28  2    1.1729 28  3    1.8413
 grad
      -0.00000    0.00000   -0.00000   -4.23193    0.00000    0.00000   -9.82000   -8.96706
       0.00000   -5.81678   10.96405   -8.09976   -9.60830   -1.35080    0.14046   -0.90767
      -7.86981   -2.88054    0.58990   -7.86381    2.67928    4.77781   11.45235   -4.59261
      -9.16266   -4.13445    6.62270   -3.79698   -7.50546    1.69544   -2.31154  -13.29092
      -2.87935   -5.88486   -6.33203   -0.10711   -1.62649    4.47538   -3.40900   -4.76407
       0.72859   -0.18014   -1.89366   -8.53303    7.86331   -1.02878    4.89449    5.36314
      -1.16960    1.89000   -1.84734   -1.89223   -0.98811    0.89153    1.54857    0.08416
       2.07370   -2.58782   -0.05210    3.06338   -1.34302   -0.95965   -2.57820   -5.40396
      -1.65726    1.02704   -3.09755    1.48485   -2.58833   -4.56205    1.37825    2.42903
      -1.15285   -0.36645    0.42384   -0.88005   -1.87619    2.16322   -2.81554   -2.34127
      -2.53984    1.02153    3.20583    3.00502
 CYCLE:     7 TIME:   0.012 TIME LEFT:  2.00D  GRAD.:    41.641 HEAT:  113.5047

          HESSIAN HAS  0 NEGATIVE EIGENVALUE(S)
  MIN SEARCH, CORRECT HESSIAN, TRYING PURE NR STEP
 LAMBDA THAT MINIMIZES ALONG ALL MODES =        0.000000000
 PURE NR-STEP HAS LENGTH   0.23041
 LAMBDA THAT MINIMIZES ALONG ALL MODES =       -6.042380067
 P-RFO-STEP   HAS LENGTH   0.21879
 LAMBDA THAT MINIMIZES ALONG ALL MODES =     -426.581493579
 QA/TRIM-STEP HAS LENGTH   0.05000

  HEAT OF FORMATION        112.68782772000850    
 PARAMETERS       -0.001   0.002  -0.023   4.582   0.001   0.029   1.534   2.029
  -0.005   1.538   0.798   4.804   1.527   1.767   4.712   1.542   1.824   0.692

   1.533   1.951   0.602   1.486   1.892   0.349   1.519   2.040   5.121   1.346

   2.137   1.077   1.208   0.563   2.170   1.492   2.073   2.574   1.124   1.907

   2.654   1.120   1.888   4.507   1.116   1.874   4.972   1.094   2.036   2.922

   1.104   1.970   1.736   1.103   1.936   3.782   1.040   2.302   3.474   1.116

   1.875   3.008   1.111   1.909   1.019   1.114   1.916   5.181   1.119   1.888

   3.214   1.108   2.076   3.194   1.088   2.030   3.119   1.107   1.909   1.003

   1.101   1.915   5.257   1.035   1.167   1.834
 GRADIENT         -0.000   0.000  -0.000   7.030   0.000   0.000 -10.414 -10.336
   0.000 -14.874   1.310  16.044 -16.397 -22.862   5.701   1.895 -20.095  -6.432

  -1.856  -2.489 -10.791  -5.883 -16.300  10.686  -7.143  -5.950  -4.599   0.731

  -8.076  -5.082  -4.155   8.351   3.174  -3.164  -7.054  -1.077  -0.704   3.787

  -3.362  -3.139   1.673  -2.029  -0.949  -7.081   6.152  -3.081   4.680   4.990

  -2.025   2.163  -1.979  -3.126  -0.070   1.676   0.626   0.404   1.363  -2.303

   0.021   2.633  -1.261  -1.213  -1.650  -1.654  -2.950  -1.602  -2.025   0.840

  -2.957  -1.011   0.757   1.359  -1.937  -0.397   0.340  -1.232  -1.423   1.571

  -3.078  -1.609  -1.791  -0.677   2.181   2.520
       HoF         ACTUAL,  PREDICTED ENERGY CHANGE, RATIO
   112.6878277    -0.8168319          -1.2906457    0.6328862
     STEPSIZE USED IS  0.05000
 CALCULATED STEP
    -0.001168 -0.003636 -0.006551 -0.000812 -0.001673  0.006260  0.008600 -0.000619
    -0.001765  0.008189 -0.006878  0.008642 -0.000406 -0.011553  0.002511  0.001030
     0.003658  0.004133 -0.005042  0.002472 -0.000690 -0.010624 -0.010708  0.008648
     0.000132  0.002877 -0.005798  0.000342  0.010537 -0.001618 -0.001063  0.008705
     0.000282 -0.000409  0.010991 -0.001266  0.000882 -0.008303  0.005725  0.004024
    -0.000925 -0.000182  0.000018  0.013921 -0.017194 -0.002058 -0.008684 -0.011721
    -0.000145 -0.003665  0.002893 -0.000952  0.001457 -0.002074 -0.004220 -0.001325
    -0.005108  0.001454 -0.000989 -0.007488  0.000441  0.000823  0.004468  0.003278
     0.003227 -0.001556  0.002251 -0.003083  0.004788  0.004943 -0.003559 -0.005150
    -0.001248 -0.000421 -0.001691 -0.000147  0.002394 -0.005325 -0.000181  0.003127
     0.004443 -0.003247 -0.006002 -0.007212
     NEW TRUST RADIUS =  0.07071
*REMARK   3 T55 = 8-Methylnonanoic acid res:    1
 PM7 CHARGE=+1 EF NOXYZ PRNT=2 PDBOUT COMPFG GRAPHF
 3034748

  O(HETATM    1  O   T55 A   1)  -0.00069017 +1    0.0023952 +1   -0.0225941 +1
  N(HETATM    2  N   T55 A   1)   4.58157809 +1    0.0509427 +1    1.6453922 +1     1     0     0
  C(HETATM    3  C1  T55 A   1)   1.53356793 +1  116.2585283 +1   -0.2691765 +1     2     1     0
  C(HETATM    4  C2  T55 A   1)   1.53798052 +1   45.7074337 +1  -84.7706597 +1     2     1     3
  C(HETATM    5  C3  T55 A   1)   1.52679518 +1  101.2395876 +1  -90.0162770 +1     3     2     1
  C(HETATM    6  C4  T55 A   1)   1.54163799 +1  104.4894604 +1   39.6495738 +1     5     3     2
  C(HETATM    7  C5  T55 A   1)   1.53315334 +1  111.7917339 +1   34.4726526 +1     3     2     1
  C(HETATM    8  C6  T55 A   1)   1.48644077 +1  108.4174665 +1   19.9877758 +1     4     2     1
  C(HETATM    9  C7  T55 A   1)   1.51883431 +1  116.9013040 +1  -66.5620336 +1     7     3     2
  C(HETATM   10  C8  T55 A   1)   1.34552229 +1  122.4506885 +1   61.6873392 +1     8     4     2
  C(HETATM   11  C9  T55 A   1)   1.20775516 +1   32.2798328 +1  124.3476996 +1     1     2     3
  C(HETATM   12  C10 T55 A   1)   1.49242743 +1  118.7775088 +1  147.4636671 +1    11     1     2
  H(HETATM   13  H1  T55 A   1)   1.12396991 +1  109.2599735 +1  152.0357350 +1     3     2     1
  H(HETATM   14  H2  T55 A   1)   1.11962604 +1  108.1928646 +1 -101.7476588 +1     4     2     1
  H(HETATM   15 1H3  T55 A   1)   1.11625264 +1  107.3479447 +1  -75.1308699 +1     5     3     2
  H(HETATM   16 2H3  T55 A   1)   1.09403783 +1  116.6669216 +1  167.4432486 +1     5     3     2
  H(HETATM   17 1H4  T55 A   1)   1.10445566 +1  112.8580520 +1   99.4380075 +1     6     5     3
  H(HETATM   18 2H4  T55 A   1)   1.10338130 +1  110.9183705 +1 -143.3084508 +1     6     5     3
  H(HETATM   19 1H   T55 A   1)   1.04047427 +1  131.9049342 +1 -160.9791579 +1     2     1     3
  H(HETATM   20 1H5  T55 A   1)   1.11600756 +1  107.4135662 +1  172.3673747 +1     7     3     2
  H(HETATM   21 2H5  T55 A   1)   1.11133802 +1  109.3967647 +1   58.3945595 +1     7     3     2
  H(HETATM   22 1H7  T55 A   1)   1.11408137 +1  109.7650352 +1  -63.1616187 +1     9     7     3
  H(HETATM   23 2H7  T55 A   1)   1.11940726 +1  108.1650135 +1 -175.8377286 +1     9     7     3
  H(HETATM   24  H8  T55 A   1)   1.10803039 +1  118.9226282 +1 -176.9691277 +1    10     8     4
  H(HETATM   25 1H10 T55 A   1)   1.08834351 +1  116.3239031 +1  178.7278967 +1    12    11     1
  H(HETATM   26 2H10 T55 A   1)   1.10723426 +1  109.3513548 +1   57.4780133 +1    12    11     1
  H(HETATM   27 3H10 T55 A   1)   1.10144017 +1  109.7044584 +1  -58.8226360 +1    12    11     1
  H(HETATM   28 2H   T55 A   1)   1.03529530 +1   66.8591000 +1  105.0827285 +1     2     1     3

 XPARAM 
  1  1   -0.0007  1  2    0.0024  1  3   -0.0226  2  1    4.5816  2  2    0.0009
  2  3    0.0287  3  1    1.5336  3  2    2.0291  3  3   -0.0047  4  1    1.5380
  4  2    0.7977  4  3    4.8037  5  1    1.5268  5  2    1.7670  5  3    4.7121
  6  1    1.5416  6  2    1.8237  6  3    0.6920  7  1    1.5332  7  2    1.9511
  7  3    0.6017  8  1    1.4864  8  2    1.8922  8  3    0.3489  9  1    1.5188
  9  2    2.0403  9  3    5.1215 10  1    1.3455 10  2    2.1372 10  3    1.0766
 11  1    1.2078 11  2    0.5634 11  3    2.1703 12  1    1.4924 12  2    2.0731
 12  3    2.5737 13  1    1.1240 13  2    1.9069 13  3    2.6535 14  1    1.1196
 14  2    1.8883 14  3    4.5074 15  1    1.1163 15  2    1.8736 15  3    4.9719
 16  1    1.0940 16  2    2.0362 16  3    2.9224 17  1    1.1045 17  2    1.9697
 17  3    1.7355 18  1    1.1034 18  2    1.9359 18  3    3.7820 19  1    1.0405
 19  2    2.3022 19  3    3.4736 20  1    1.1160 20  2    1.8747 20  3    3.0084
 21  1    1.1113 21  2    1.9093 21  3    1.0192 22  1    1.1141 22  2    1.9158
 22  3    5.1808 23  1    1.1194 23  2    1.8878 23  3    3.2142 24  1    1.1080
 24  2    2.0756 24  3    3.1945 25  1    1.0883 25  2    2.0302 25  3    3.1194
 26  1    1.1072 26  2    1.9085 26  3    1.0032 27  1    1.1014 27  2    1.9147
 27  3    5.2565 28  1    1.0353 28  2    1.1669 28  3    1.8340
 grad
      -0.00000    0.00000   -0.00000    7.02994    0.00000    0.00000  -10.41400  -10.33632
       0.00000  -14.87418    1.31014   16.04376  -16.39709  -22.86156    5.70149    1.89497
     -20.09502   -6.43212   -1.85624   -2.48902  -10.79139   -5.88331  -16.30034   10.68557
      -7.14343   -5.94983   -4.59946    0.73060   -8.07636   -5.08170   -4.15537    8.35071
       3.17424   -3.16443   -7.05372   -1.07748   -0.70351    3.78721   -3.36169   -3.13862
       1.67251   -2.02898   -0.94878   -7.08069    6.15180   -3.08106    4.67971    4.98989
      -2.02508    2.16317   -1.97909   -3.12629   -0.06951    1.67625    0.62644    0.40427
       1.36341   -2.30323    0.02052    2.63309   -1.26107   -1.21324   -1.65021   -1.65365
      -2.94997   -1.60221   -2.02501    0.84014   -2.95659   -1.01141    0.75697    1.35855
      -1.93674   -0.39693    0.34000   -1.23225   -1.42328    1.57064   -3.07827   -1.60917
      -1.79124   -0.67688    2.18077    2.51974
 CYCLE:     8 TIME:   0.011 TIME LEFT:  2.00D  GRAD.:    56.721 HEAT:  112.6878

          HESSIAN HAS  0 NEGATIVE EIGENVALUE(S)
  MIN SEARCH, CORRECT HESSIAN, TRYING PURE NR STEP
 LAMBDA THAT MINIMIZES ALONG ALL MODES =        0.000000000
 PURE NR-STEP HAS LENGTH   0.11502
 LAMBDA THAT MINIMIZES ALONG ALL MODES =       -2.293817537
 P-RFO-STEP   HAS LENGTH   0.11320
 LAMBDA THAT MINIMIZES ALONG ALL MODES =      -91.110566583
 QA/TRIM-STEP HAS LENGTH   0.07071

  HEAT OF FORMATION        111.82854606135515    
 PARAMETERS       -0.003  -0.007  -0.035   4.578  -0.003   0.038   1.541   2.028
  -0.007   1.545   0.796   4.798   1.531   1.762   4.716   1.539   1.835   0.693

   1.529   1.951   0.618   1.479   1.890   0.356   1.521   2.044   5.123   1.345

   2.147   1.082   1.206   0.565   2.167   1.492   2.083   2.575   1.124   1.893

   2.668   1.123   1.883   4.508   1.115   1.892   4.942   1.095   2.020   2.899

   1.105   1.963   1.739   1.104   1.936   3.777   1.035   2.299   3.466   1.118

   1.873   2.996   1.112   1.910   1.026   1.116   1.920   5.183   1.121   1.883

   3.225   1.111   2.071   3.185   1.088   2.029   3.116   1.108   1.911   0.994

   1.103   1.918   5.264   1.033   1.158   1.820
 GRADIENT         -0.000   0.000  -0.000   7.844   0.000   0.000   3.594   0.723
   0.000  -7.869   8.678 -12.775  -2.256   1.988  -1.230  -0.985  -0.550   5.099

   2.952   2.989  15.116 -14.467  -4.553  24.408  -6.405   6.360   7.590  -3.858

 -11.697   5.416  -5.647   7.269   3.584  -2.755  -4.245  -0.763  -0.737   2.462

  -3.242   0.223   0.847  -0.246  -0.183  -4.593   4.438  -4.169   4.643   3.957

  -0.893   0.548   0.034  -2.095  -0.920   0.276  -1.259  -0.195   1.372  -1.309

  -0.648   0.759  -1.102  -1.142  -0.406  -2.842   0.286   1.619   0.698  -0.901

   1.006  -0.240   1.248   2.858  -1.880  -0.896   0.228  -1.200  -0.910   0.605

  -2.571  -1.226  -0.708  -2.114   1.368   1.550
       HoF         ACTUAL,  PREDICTED ENERGY CHANGE, RATIO
   111.8285461    -0.8592817          -1.0200660    0.8423785
     STEPSIZE USED IS  0.07071
 CALCULATED STEP
    -0.002027 -0.009436 -0.012566 -0.003151 -0.004237  0.009116  0.007431 -0.001388
    -0.002461  0.007437 -0.001286 -0.005733  0.003980 -0.004614  0.003920 -0.002794
     0.011372  0.000741 -0.004279 -0.000544  0.015990 -0.007376 -0.002187  0.007433
     0.001737  0.003788  0.001148 -0.000804  0.009875  0.005425 -0.001419  0.001701
    -0.003369 -0.000209  0.010061  0.000996 -0.000078 -0.014141  0.014738  0.003546
    -0.005574  0.001111 -0.001124  0.018771 -0.029569  0.000468 -0.016109 -0.023843
     0.000332 -0.007114  0.003638  0.000513 -0.000259 -0.004625 -0.005348 -0.003007
    -0.007480  0.001910 -0.002191 -0.012617  0.000874  0.000946  0.007218  0.002418
     0.004270  0.001835  0.001989 -0.005202  0.010273  0.002906 -0.004568 -0.009718
    -0.000248 -0.001059 -0.002939  0.000374  0.002486 -0.008762  0.001097  0.002922
     0.007318 -0.002595 -0.009221 -0.013662
     NEW TRUST RADIUS =  0.10000
*REMARK   3 T55 = 8-Methylnonanoic acid res:    1
 PM7 CHARGE=+1 EF NOXYZ PRNT=2 PDBOUT COMPFG GRAPHF
 3034748

  O(HETATM    1  O   T55 A   1)  -0.00271750 +1   -0.0070403 +1   -0.0351598 +1
[...]

   1.531   1.917   0.653   1.494   1.865   0.991   1.534   2.019   5.015   1.339

   2.197   1.099   1.208   1.409   0.311   1.483   2.159   3.085   1.121   1.888

   2.740   1.126   1.879   5.189   1.108   1.945   4.664   1.108   1.948   2.633

   1.108   1.950   1.966   1.108   1.940   3.998   1.037   1.827   3.370   1.118

   1.885   2.894   1.111   1.933   0.920   1.116   1.930   5.289   1.118   1.887

   3.320   1.101   2.095   3.147   1.096   2.000   3.019   1.107   1.940   0.876

   1.108   1.929   5.133   1.039   1.076   1.569
 GRADIENT         -0.000   0.000  -0.000  -0.053   0.000   0.000  -0.123  -0.212
   0.000  -0.074  -0.037   0.075  -0.127  -0.142  -0.004   0.006  -0.099  -0.060

  -0.028  -0.142  -0.122   0.072  -0.049  -0.018  -0.025  -0.064   0.006   0.031

  -0.034  -0.038  -0.038  -0.135   0.033  -0.036  -0.003  -0.050  -0.009  -0.008

  -0.004  -0.018   0.005  -0.006  -0.022  -0.002  -0.008   0.017  -0.005  -0.008

  -0.011  -0.002  -0.020  -0.014  -0.009  -0.008  -0.007   0.006   0.001  -0.001

   0.005  -0.017   0.006   0.004  -0.020  -0.010  -0.008  -0.011  -0.014  -0.002

  -0.023  -0.018  -0.014  -0.017  -0.008   0.011  -0.053   0.005   0.008  -0.056

  -0.009  -0.034  -0.061  -0.004  -0.013   0.010
       HoF         ACTUAL,  PREDICTED ENERGY CHANGE, RATIO
   104.5821652    -0.0005156          -0.0002528    2.0392789
     STEPSIZE USED IS  0.00362
 CALCULATED STEP
     0.000868 -0.000099  0.000612 -0.000837 -0.000253 -0.000352  0.000049  0.000319
    -0.001629 -0.000084 -0.000215  0.000590  0.000020 -0.000077  0.000308  0.000064
    -0.000035  0.000158 -0.000040 -0.000106  0.000383 -0.000032  0.000052  0.000645
    -0.000040 -0.000063 -0.000462 -0.000042  0.000035  0.000255  0.000052  0.000542
    -0.001807 -0.000010 -0.000077  0.000979  0.000004 -0.000067  0.000169  0.000049
     0.000034  0.000371 -0.000025  0.000014  0.000039 -0.000026 -0.000022 -0.000038
    -0.000011 -0.000013 -0.000152 -0.000026 -0.000047 -0.000188 -0.000022 -0.000385
     0.000117 -0.000008  0.000018 -0.000581 -0.000010  0.000005 -0.000557 -0.000015
     0.000077  0.000672 -0.000012  0.000073  0.000627  0.000020  0.000026 -0.000380
     0.000011 -0.000062  0.000261 -0.000012  0.000017  0.000256 -0.000024  0.000017
     0.000258 -0.000010  0.000365  0.000006
     NEW TRUST RADIUS =  0.10000
*REMARK   3 T55 = 8-Methylnonanoic acid res:    1
 PM7 CHARGE=+1 EF NOXYZ PRNT=2 PDBOUT COMPFG GRAPHF
 3034748

  O(HETATM    1  O   T55 A   1)   1.05268203 +1   -0.8800738 +1   -0.2118343 +1
  N(HETATM    2  N   T55 A   1)   3.42696565 +1  -22.3911160 +1  -12.0064790 +1     1     0     0
  C(HETATM    3  C1  T55 A   1)   1.53801706 +1  143.5340109 +1   54.8600207 +1     2     1     0
  C(HETATM    4  C2  T55 A   1)   1.54591850 +1   53.6898474 +1  -62.0342836 +1     2     1     3
  C(HETATM    5  C3  T55 A   1)   1.53557035 +1  103.2949669 +1  -84.7069779 +1     3     2     1
  C(HETATM    6  C4  T55 A   1)   1.53855482 +1  106.6466636 +1   28.5814670 +1     5     3     2
  C(HETATM    7  C5  T55 A   1)   1.53128514 +1  109.8364298 +1   37.4048061 +1     3     2     1
  C(HETATM    8  C6  T55 A   1)   1.49406695 +1  106.8684755 +1   56.7573190 +1     4     2     1
  C(HETATM    9  C7  T55 A   1)   1.53365052 +1  115.6990694 +1  -72.6445874 +1     7     3     2
  C(HETATM   10  C8  T55 A   1)   1.33900928 +1  125.8956101 +1   62.9532387 +1     8     4     2
  C(HETATM   11  C9  T55 A   1)   1.20806872 +1   80.7326482 +1   17.8181295 +1     1     2     3
  C(HETATM   12  C10 T55 A   1)   1.48277111 +1  123.7150820 +1  176.7334536 +1    11     1     2
  H(HETATM   13  H1  T55 A   1)   1.12123620 +1  108.1541249 +1  157.0106035 +1     3     2     1
  H(HETATM   14  H2  T55 A   1)   1.12622364 +1  107.6691550 +1  -62.7183066 +1     4     2     1
  H(HETATM   15 1H3  T55 A   1)   1.10847221 +1  111.4640854 +1  -92.7876375 +1     5     3     2
  H(HETATM   16 2H3  T55 A   1)   1.10795033 +1  111.6128502 +1  150.8352059 +1     5     3     2
  H(HETATM   17 1H4  T55 A   1)   1.10820617 +1  111.7050943 +1  112.6701426 +1     6     5     3
  H(HETATM   18 2H4  T55 A   1)   1.10812255 +1  111.1771696 +1 -130.9421504 +1     6     5     3
  H(HETATM   19 1H   T55 A   1)   1.03662340 +1  104.7000856 +1 -166.9057237 +1     2     1     3
  H(HETATM   20 1H5  T55 A   1)   1.11809023 +1  107.9777972 +1  165.8242888 +1     7     3     2
  H(HETATM   21 2H5  T55 A   1)   1.11149244 +1  110.7350816 +1   52.7266443 +1     7     3     2
  H(HETATM   22 1H7  T55 A   1)   1.11583118 +1  110.5976792 +1  -56.9708935 +1     9     7     3
  H(HETATM   23 2H7  T55 A   1)   1.11794386 +1  108.1357750 +1 -169.7884188 +1     9     7     3
  H(HETATM   24  H8  T55 A   1)   1.10088607 +1  120.0445714 +1 -179.6967060 +1    10     8     4
  H(HETATM   25 1H10 T55 A   1)   1.09633090 +1  114.6130500 +1  172.9712424 +1    12    11     1
  H(HETATM   26 2H10 T55 A   1)   1.10743301 +1  111.1781273 +1   50.1916976 +1    12    11     1
  H(HETATM   27 3H10 T55 A   1)   1.10790843 +1  110.5516093 +1  -65.8803650 +1    12    11     1
  H(HETATM   28 2H   T55 A   1)   1.03929069 +1   61.6364773 +1   89.9251279 +1     2     1     3

 XPARAM 
  1  1    1.0527  1  2   -0.8801  1  3   -0.2118  2  1    3.4270  2  2   -0.3908
  2  3   -0.2096  3  1    1.5380  3  2    2.5051  3  3    0.9575  4  1    1.5459
  4  2    0.9371  4  3    5.2005  5  1    1.5356  5  2    1.8028  5  3    4.8048
  6  1    1.5386  6  2    1.8613  6  3    0.4988  7  1    1.5313  7  2    1.9170
  7  3    0.6528  8  1    1.4941  8  2    1.8652  8  3    0.9906  9  1    1.5337
  9  2    2.0193  9  3    5.0153 10  1    1.3390 10  2    2.1973 10  3    1.0987
 11  1    1.2081 11  2    1.4091 11  3    0.3110 12  1    1.4828 12  2    2.1592
 12  3    3.0846 13  1    1.1212 13  2    1.8876 13  3    2.7404 14  1    1.1262
 14  2    1.8792 14  3    5.1885 15  1    1.1085 15  2    1.9454 15  3    4.6637
 16  1    1.1080 16  2    1.9480 16  3    2.6326 17  1    1.1082 17  2    1.9496
 17  3    1.9665 18  1    1.1081 18  2    1.9404 18  3    3.9978 19  1    1.0366
 19  2    1.8274 19  3    3.3701 20  1    1.1181 20  2    1.8846 20  3    2.8942
 21  1    1.1115 21  2    1.9327 21  3    0.9203 22  1    1.1158 22  2    1.9303
 22  3    5.2889 23  1    1.1179 23  2    1.8873 23  3    3.3198 24  1    1.1009
 24  2    2.0952 24  3    3.1469 25  1    1.0963 25  2    2.0004 25  3    3.0189
 26  1    1.1074 26  2    1.9404 26  3    0.8760 27  1    1.1079 27  2    1.9295
 27  3    5.1334 28  1    1.0393 28  2    1.0758 28  3    1.5695
 grad
      -0.00001    0.00000   -0.00002   -0.05259    0.00000    0.00000   -0.12254   -0.21243
       0.00000   -0.07364   -0.03695    0.07465   -0.12682   -0.14186   -0.00437    0.00611
      -0.09913   -0.06028   -0.02790   -0.14175   -0.12249    0.07193   -0.04935   -0.01833
      -0.02468   -0.06436    0.00632    0.03068   -0.03386   -0.03763   -0.03840   -0.13464
       0.03291   -0.03584   -0.00304   -0.04981   -0.00944   -0.00837   -0.00439   -0.01759
       0.00486   -0.00599   -0.02160   -0.00175   -0.00809    0.01697   -0.00487   -0.00760
      -0.01146   -0.00198   -0.01987   -0.01393   -0.00875   -0.00762   -0.00667    0.00557
       0.00079   -0.00098    0.00464   -0.01705    0.00619    0.00410   -0.02009   -0.00953
      -0.00770   -0.01149   -0.01394   -0.00166   -0.02331   -0.01848   -0.01363   -0.01666
      -0.00843    0.01072   -0.05308    0.00456    0.00812   -0.05576   -0.00883   -0.03387
      -0.06056   -0.00356   -0.01302    0.01026
 CYCLE:    94 TIME:   0.011 TIME LEFT:  2.00D  GRAD.:     0.467 HEAT:  104.5822

     GRADIENT =  0.46683 IS LESS THAN CUTOFF =  1.00000



  HEAT OF FORMATION        104.58216373692994    

 -------------------------------------------------------------------------------
 PM7 CHARGE=+1 EF NOXYZ PRNT=2 PDBOUT COMPFG GRAPHF
 3034748



     GEOMETRY OPTIMISED USING EIGENVECTOR FOLLOWING (EF).     
     SCF FIELD WAS ACHIEVED                                   


                              PM7 CALCULATION
                                                       MOPAC v22.0.6 Linux
                                                       Mon Oct  6 01:27:27 2025




          FINAL HEAT OF FORMATION =        104.58216 KCAL/MOL =     437.57177 KJ/MOL


          COSMO AREA              =        197.78 SQUARE ANGSTROMS
          COSMO VOLUME            =        214.64 CUBIC ANGSTROMS

          GRADIENT NORM           =          0.46683          =       0.08822 PER ATOM
          IONIZATION POTENTIAL    =         13.721596 EV
          HOMO LUMO ENERGIES (EV) =        -13.722 -4.096
          NO. OF FILLED LEVELS    =         33
          MOLECULAR WEIGHT        =        166.2425         POINT GROUP:  C1  

          MOLECULAR DIMENSIONS (Angstroms)

            Atom       Atom       Distance
            H    26    H    15     7.68183
            H    14    H    23     5.24827
            H    17    H    28     3.97990


          SCF CALCULATIONS        =        113

          WALL-CLOCK TIME         =      1.286 SECONDS
          COMPUTATION TIME        =      0.942 SECONDS




  ATOM               CHEMICAL                 BOND LENGTH      BOND ANGLE     TWIST ANGLE 
 NUMBER               SYMBOL                  (ANGSTROMS)      (DEGREES)       (DEGREES) 
   (I)                                           NA:I           NB:NA:I       NC:NB:NA:I       NA    NB    NC 
     1       O(HETATM    1  O   T55 A   1)    1.05268203  *   -0.8800738  *   -0.2118343  *
     2       N(HETATM    2  N   T55 A   1)    3.42696565  *  -22.3911160  *  -12.0064790  *     1     0     0
     3       C(HETATM    3  C1  T55 A   1)    1.53801706  *  143.5340109  *   54.8600207  *     2     1     0
     4       C(HETATM    4  C2  T55 A   1)    1.54591850  *   53.6898474  *  -62.0342836  *     2     1     3
     5       C(HETATM    5  C3  T55 A   1)    1.53557035  *  103.2949669  *  -84.7069779  *     3     2     1
     6       C(HETATM    6  C4  T55 A   1)    1.53855482  *  106.6466636  *   28.5814670  *     5     3     2
     7       C(HETATM    7  C5  T55 A   1)    1.53128514  *  109.8364298  *   37.4048061  *     3     2     1
     8       C(HETATM    8  C6  T55 A   1)    1.49406695  *  106.8684755  *   56.7573190  *     4     2     1
     9       C(HETATM    9  C7  T55 A   1)    1.53365052  *  115.6990694  *  -72.6445874  *     7     3     2
    10       C(HETATM   10  C8  T55 A   1)    1.33900928  *  125.8956101  *   62.9532387  *     8     4     2
    11       C(HETATM   11  C9  T55 A   1)    1.20806872  *   80.7326482  *   17.8181295  *     1     2     3
    12       C(HETATM   12  C10 T55 A   1)    1.48277111  *  123.7150820  *  176.7334536  *    11     1     2
    13       H(HETATM   13  H1  T55 A   1)    1.12123620  *  108.1541249  *  157.0106035  *     3     2     1
    14       H(HETATM   14  H2  T55 A   1)    1.12622364  *  107.6691550  *  -62.7183066  *     4     2     1
    15       H(HETATM   15 1H3  T55 A   1)    1.10847221  *  111.4640854  *  -92.7876375  *     5     3     2
    16       H(HETATM   16 2H3  T55 A   1)    1.10795033  *  111.6128502  *  150.8352059  *     5     3     2
    17       H(HETATM   17 1H4  T55 A   1)    1.10820617  *  111.7050943  *  112.6701426  *     6     5     3
    18       H(HETATM   18 2H4  T55 A   1)    1.10812255  *  111.1771696  * -130.9421504  *     6     5     3
    19       H(HETATM   19 1H   T55 A   1)    1.03662340  *  104.7000856  * -166.9057237  *     2     1     3
    20       H(HETATM   20 1H5  T55 A   1)    1.11809023  *  107.9777972  *  165.8242888  *     7     3     2
    21       H(HETATM   21 2H5  T55 A   1)    1.11149244  *  110.7350816  *   52.7266443  *     7     3     2
    22       H(HETATM   22 1H7  T55 A   1)    1.11583118  *  110.5976792  *  -56.9708935  *     9     7     3
    23       H(HETATM   23 2H7  T55 A   1)    1.11794386  *  108.1357750  * -169.7884188  *     9     7     3
    24       H(HETATM   24  H8  T55 A   1)    1.10088607  *  120.0445714  * -179.6967060  *    10     8     4
    25       H(HETATM   25 1H10 T55 A   1)    1.09633090  *  114.6130500  *  172.9712424  *    12    11     1
    26       H(HETATM   26 2H10 T55 A   1)    1.10743301  *  111.1781273  *   50.1916976  *    12    11     1
    27       H(HETATM   27 3H10 T55 A   1)    1.10790843  *  110.5516093  *  -65.8803650  *    12    11     1
    28       H(HETATM   28 2H   T55 A   1)    1.03929069  *   61.6364773  *   89.9251279  *     2     1     3

                             CARTESIAN COORDINATES

   1    O        1.052682030    -0.880073786    -0.211834335
   2    N        4.479647680    -0.880073786    -0.211834335
   3    C        5.716536085     0.034039750    -0.211834335
   4    C        3.564222802    -0.295893829    -1.312104788
   5    C        5.918587928     0.354786192    -1.699877702
   6    C        4.529809796     0.284924381    -2.358334658
   7    C        5.454356264     1.263068776     0.663141991
   8    C        2.675904309     0.706458300    -0.649974508
   9    C        4.486382610     2.300108105     0.080338130
  10    C        3.076507255     1.830848571    -0.043171700
  11    C        1.247231189     0.255035251    -0.576674211
  12    C        0.164468834     1.195646757    -0.952820254
  13    H        6.580421946    -0.547098999     0.204278131
  14    H        2.965445326    -1.145665463    -1.745386906
  15    H        6.621645522    -0.357432094    -2.176496799
  16    H        6.390527874     1.346916192    -1.843072246
  17    H        4.189187602     1.281467020    -2.703298715
  18    H        4.552878610    -0.334909080    -3.276599271
  19    H        4.742700601    -1.856694387    -0.438998225
  20    H        6.434526085     1.765767858     0.854679253
  21    H        5.108519178     0.959332705     1.674851708
  22    H        4.845772016     2.657425048    -0.913766034
  23    H        4.530180435     3.215462129     0.720656211
  24    H        2.336065553     2.501227348     0.419741373
  25    H        0.497731388     2.222307956    -1.144768959
  26    H       -0.622436935     1.231774794    -0.174436067
  27    H       -0.354937758     0.845430216    -1.866617967
  28    H        3.985918001    -0.878878717     0.702689971


           Empirical Formula: C10 H16 N O  =    28 atoms



      MOLECULAR POINT GROUP   :   C1  


                  EIGENVALUES  
 -42.85327 -34.73965 -33.89457 -32.00905 -31.78369 -29.82026 -27.95570 -27.81703
 -24.98337 -24.82337 -23.93813 -23.10353 -22.42830 -21.57548 -20.68391 -20.13778
 -19.47841 -19.24108 -18.84523 -18.59599 -18.32933 -17.95610 -17.84465 -17.21737
 -17.15061 -16.66190 -16.59275 -16.35846 -16.23252 -15.99978 -15.60590 -14.36743
 -13.72160  -4.09633  -3.18501  -2.47700  -1.97075  -1.33258  -1.02499  -0.92795
  -0.62586  -0.47544  -0.26793  -0.08341  -0.02539   0.32431   0.37385   0.60036
   0.65665   0.83496   0.98020   1.12662   1.21596   1.42365   1.59229   1.66574
   1.82247   1.93392   2.06559   2.20207   2.23252   2.37305   2.39705   3.45468


              NET ATOMIC CHARGES AND DIPOLE CONTRIBUTIONS

  ATOM NO.                 TYPE                        CHARGE      No. of ELECS.   s-Pop       p-Pop       
    1          O(HETATM    1  O   T55 A   1)          -0.444420        6.4444     1.87979     4.56463
    2          N(HETATM    2  N   T55 A   1)          -0.227054        5.2271     1.53079     3.69627
    3          C(HETATM    3  C1  T55 A   1)           0.013744        3.9863     1.10216     2.88410
    4          C(HETATM    4  C2  T55 A   1)           0.044126        3.9559     1.09636     2.85951
    5          C(HETATM    5  C3  T55 A   1)          -0.299638        4.2996     1.06882     3.23081
    6          C(HETATM    6  C4  T55 A   1)          -0.299125        4.2991     1.06940     3.22973
    7          C(HETATM    7  C5  T55 A   1)          -0.303545        4.3035     1.06547     3.23807
    8          C(HETATM    8  C6  T55 A   1)          -0.287298        4.2873     1.09028     3.19702
    9          C(HETATM    9  C7  T55 A   1)          -0.301497        4.3015     1.05569     3.24581
   10          C(HETATM   10  C8  T55 A   1)          -0.012895        4.0129     1.10781     2.90509
   11          C(HETATM   11  C9  T55 A   1)           0.494078        3.5059     1.11319     2.39273
   12          C(HETATM   12  C10 T55 A   1)          -0.535419        4.5354     1.06113     3.47429
   13          H(HETATM   13  H1  T55 A   1)           0.170423        0.8296     0.82958
   14          H(HETATM   14  H2  T55 A   1)           0.188231        0.8118     0.81177
   15          H(HETATM   15 1H3  T55 A   1)           0.173022        0.8270     0.82698
   16          H(HETATM   16 2H3  T55 A   1)           0.182958        0.8170     0.81704
   17          H(HETATM   17 1H4  T55 A   1)           0.181471        0.8185     0.81853
   18          H(HETATM   18 2H4  T55 A   1)           0.177206        0.8228     0.82279
   19          H(HETATM   19 1H   T55 A   1)           0.297804        0.7022     0.70220
   20          H(HETATM   20 1H5  T55 A   1)           0.187158        0.8128     0.81284
   21          H(HETATM   21 2H5  T55 A   1)           0.166991        0.8330     0.83301
   22          H(HETATM   22 1H7  T55 A   1)           0.180510        0.8195     0.81949
   23          H(HETATM   23 2H7  T55 A   1)           0.180157        0.8198     0.81984
   24          H(HETATM   24  H8  T55 A   1)           0.174588        0.8254     0.82541
   25          H(HETATM   25 1H10 T55 A   1)           0.174983        0.8250     0.82502
   26          H(HETATM   26 2H10 T55 A   1)           0.207365        0.7926     0.79264
   27          H(HETATM   27 3H10 T55 A   1)           0.206797        0.7932     0.79320
   28          H(HETATM   28 2H   T55 A   1)           0.309280        0.6907     0.69072
 DIPOLE           X         Y         Z       TOTAL
 POINT-CHG.     5.094     0.512    -0.164     5.122
 HYBRID         0.086    -0.788     0.493     0.933
 SUM            5.180    -0.276     0.329     5.198


          ATOMIC ORBITAL ELECTRON POPULATIONS

                   Atom                  s        px        py        pz   
   O(HETATM    1  O   T55 A   1)   1.87979   1.88298   1.28621   1.39543
   N(HETATM    2  N   T55 A   1)   1.53079   1.22527   1.22548   1.24551
   C(HETATM    3  C1  T55 A   1)   1.10216   0.88320   0.96182   1.03907
   C(HETATM    4  C2  T55 A   1)   1.09636   0.93793   1.03986   0.88173
   C(HETATM    5  C3  T55 A   1)   1.06882   1.05278   1.20835   0.96969
   C(HETATM    6  C4  T55 A   1)   1.06940   0.97659   1.18999   1.06315
   C(HETATM    7  C5  T55 A   1)   1.06547   1.14141   1.01745   1.07921
   C(HETATM    8  C6  T55 A   1)   1.09028   1.05795   1.03217   1.10690
   C(HETATM    9  C7  T55 A   1)   1.05569   0.98813   1.08172   1.17596
   C(HETATM   10  C8  T55 A   1)   1.10781   1.03308   0.97029   0.90172
   C(HETATM   11  C9  T55 A   1)   1.11319   0.87979   0.83204   0.68090
   C(HETATM   12  C10 T55 A   1)   1.06113   1.12402   1.13509   1.21519
   H(HETATM   13  H1  T55 A   1)   0.82958
   H(HETATM   14  H2  T55 A   1)   0.81177
   H(HETATM   15 1H3  T55 A   1)   0.82698
   H(HETATM   16 2H3  T55 A   1)   0.81704
   H(HETATM   17 1H4  T55 A   1)   0.81853
   H(HETATM   18 2H4  T55 A   1)   0.82279
   H(HETATM   19 1H   T55 A   1)   0.70220
   H(HETATM   20 1H5  T55 A   1)   0.81284
   H(HETATM   21 2H5  T55 A   1)   0.83301
   H(HETATM   22 1H7  T55 A   1)   0.81949
   H(HETATM   23 2H7  T55 A   1)   0.81984
   H(HETATM   24  H8  T55 A   1)   0.82541
   H(HETATM   25 1H10 T55 A   1)   0.82502
   H(HETATM   26 2H10 T55 A   1)   0.79264
   H(HETATM   27 3H10 T55 A   1)   0.79320
   H(HETATM   28 2H   T55 A   1)   0.69072

           DATA FOR GRAPH WRITTEN TO DISK

 **********************
 *                    *
 * JOB ENDED NORMALLY *
 *                    *
 **********************



 TOTAL JOB TIME:             1.30 SECONDS

 == MOPAC DONE ==
