 *******************************************************************************
 **                                                                           **
 **                              MOPAC v22.0.6                                **
 **                                                                           **
 *******************************************************************************
 **          Digital Object Identifier (DOI): 10.5281/zenodo.6511958          **
 **    Visit the DOI location for information on how to cite this program.    **
 *******************************************************************************

                              PM7 CALCULATION RESULTS

 *******************************************************************************
 *  CALCULATION DONE:                                Mon Oct  6 00:09:04 2025  *
 *  PM7        - The PM7 Hamiltonian to be used
 *  PDBOUT     - PRINT GEOMETRY IN PDB FORMAT
 *  RESIDUES   - DETERMINE THE SEQUENCE OF RESIDUES
 *
 *
 *
 *                 CHARGE ON SYSTEM = +1
 *
 *
 *
 *  EF         - USE EF ROUTINE FOR MINIMUM SEARCH
 *  T=         - A TIME OF 172800.0 SECONDS REQUESTED
 *  DUMP=N     - RESTART FILE WRITTEN EVERY 7200.0 SECONDS REQUESTED
 *  NOXYZ      - CARTESIAN COORDINATES NOT TO BE PRINTED
 *  PRNT       - EXTRA PRINTING IN EF ROUTINE
 *  GRAPH      - GENERATE FILE FOR GRAPHICS
 *  COMPFG     - PRINT HEAT OF FORMATION CALC'D IN COMPFG
 *******************************************************************************
PM7 CHARGE=+1 EF NOXYZ PRNT=2 PDBOUT COMPFG GRAPHF
 854026

  ATOM    CHEMICAL      BOND LENGTH      BOND ANGLE     TWIST ANGLE 
 NUMBER    SYMBOL       (ANGSTROMS)      (DEGREES)       (DEGREES) 
   (I)                     NA:I           NB:NA:I       NC:NB:NA:I       NA    NB    NC 
     1       O          0.00000000  *    0.0000000  *    0.0000000  *     0     0     0
     2       N          6.24861200  *    0.0000000  *    0.0000000  *     1     0     0
     3       N          2.23264100  *   39.9674950  *    0.0000000  *     1     2     0
     4       C          1.51239600  *   58.2657730  *  -22.6583860  *     2     1     3
     5       C          2.21227400  *  148.6347080  *  122.8393520  *     4     2     1
     6       C          1.37578500  *   36.8270250  *    0.9589340  *     5     4     2
     7       C          1.51938600  *   98.6839460  * -119.5647700  *     4     2     1
     8       C          1.46617500  *  103.5473120  *    0.1551850  *     4     2     1
     9       C          1.51041600  *   98.4386350  * -122.1241240  *     5     4     2
    10       C          1.40459300  *  117.6673760  *  152.4874100  *     8     4     2
    11       C          1.52549100  *  107.9690970  * -151.3249830  *     7     4     2
    12       C          1.34014300  *  121.2305810  *    1.9081930  *    11     7     4
    13       C          1.33893900  *  125.3233950  *  179.9690140  *     6     5     4
    14       C          1.40152400  *  124.3883100  *  -34.9234420  *     8     4     2
    15       C          1.51373500  *  115.6886530  *  179.0913920  *    11     7     4
    16       C          1.43905900  *  120.2623160  * -176.2727420  *    14     8     4
    17       C          1.21318400  *   10.4161570  *   29.1292460  *     1     2     3
    18       C          1.51623200  *  126.2411120  *   -0.1346690  *    13     6     5
    19       H          1.10105700  *  166.2621790  *   -7.6714180  *     5     4     2
    20       H          1.09329900  *  110.8545640  *   88.5276620  *     7     4     2
    21       H          1.09561600  *  113.2134760  *  -31.8613500  *     7     4     2
    22       H          1.09379800  *  110.9545030  * -123.5187490  *     9     5     4
    23       H          1.09457300  *  111.1844750  *  116.8880680  *     9     5     4
    24       H          1.09010500  *  119.5801600  *  178.5964320  *    12    11     7
    25       H          1.03352100  *   79.7244810  * -133.4374480  *     2     1     3
    26       H          1.03306200  *   70.8110630  *  113.3811440  *     2     1     3
    27       H          1.08683200  *  120.8535390  * -179.9036510  *    13     6     5
    28       H          1.08700100  *  122.9493880  *    1.0136200  *    14     8     4
    29       H          1.00840200  *   90.3527840  * -170.5660200  *     3     1     2
    30       H          1.09228500  *  110.5341020  *   62.3160320  *    15    11     7
    31       H          1.09230400  *  110.6635770  *  -57.5731790  *    15    11     7
    32       H          1.09244600  *  111.3774020  * -177.6619530  *    15    11     7
    33       H          1.08510800  *  122.3646710  * -178.1623010  *    16    14     8
    34       H          1.09207900  *  110.0740020  *  120.8887860  *    18    13     6
    35       H          1.08980100  *  113.2698760  *    0.2204320  *    18    13     6
    36       H          1.09206000  *  110.0358160  * -120.3612730  *    18    13     6
    37       H          1.03315700  *  171.9844600  *   30.7185710  *     2     1     3


 General Reference for PM7:
 "Optimization of Parameters for Semiempirical Methods VI: More Modifications to the 
 NDDO Approximations and Re-optimization of Parameters", J. J. P. Stewart, J. Mol. Mod., 1:32, 19 (2013)
 https://link.springer.com/article/10.1007/s00894-012-1667-x

           Empirical Formula: C15 H19 N2 O  =    37 atoms



      MOLECULAR POINT GROUP   :   C1  


      RHF CALCULATION, NO. OF DOUBLY OCCUPIED LEVELS = 47


          Geometry optimization using EF

  HEAT OF FORMATION        207.85597342901747    
 PARAMETERS        0.000   0.000   0.000   6.249   0.000   0.000   2.233   0.698
   0.000   1.512   1.017   5.888   2.212   2.594   2.144   1.376   0.643   0.017

   1.519   1.722   4.196   1.466   1.807   0.003   1.510   1.718   4.152   1.405

   2.054   2.661   1.525   1.884   3.642   1.340   2.116   0.033   1.339   2.187

   3.141   1.402   2.171   5.674   1.514   2.019   3.126   1.439   2.099   3.207

   1.213   0.182   0.508   1.516   2.203   6.281   1.101   2.902   6.149   1.093

   1.935   1.545   1.096   1.976   5.727   1.094   1.937   4.127   1.095   1.941

   2.040   1.090   2.087   3.117   1.034   1.391   3.954   1.033   1.236   1.979

   1.087   2.109   3.143   1.087   2.146   0.018   1.008   1.577   3.306   1.092

   1.929   1.088   1.092   1.931   5.278   1.092   1.944   3.182   1.085   2.136

   3.174   1.092   1.921   2.110   1.090   1.977   0.004   1.092   1.920   4.182

   1.033   3.002   0.536
 GRADIENT         -0.000  -0.000  -0.000  77.845   0.000   0.000-130.516 -70.854
   0.000-102.912 171.456 -30.547-155.464 215.905 242.674 -98.741-212.314  22.497

-235.182 317.229-226.435-116.095  -8.942  38.207 -67.453  77.887  19.642  -5.148

 -56.035  -7.877 -49.089-443.177  62.489 100.371-171.707  26.783 -17.430   4.194

  -0.423 -30.395 -16.664   2.494  19.354   3.487  -0.212  93.139  -3.800  -0.070

  17.088  86.558 -11.243  24.674   4.062  -0.469 -56.896  67.725  -1.511 -12.596

  -4.052  -2.124  -9.538  -5.666   2.543 -14.148  -1.406   1.232 -13.149  -0.095

  -0.856  -5.489   0.236   1.263 -12.893 -13.295  21.462  -3.248   1.205   5.159

  -2.317  -6.191  -0.237   2.453  -2.043  -0.779 -13.341  -1.489   0.471  -4.688

  -1.801  -0.523  -4.090  -2.587   0.372  -4.469  -2.410   0.204   0.718   3.867

   1.007  -5.975  -1.377  -0.122  -4.148  -0.300   0.240  -5.889  -1.324  -0.127

   0.418   7.184   0.608

          DIAGONAL MATRIX USED AS START HESSIAN

*REMARK   3 HET = Not identified; C 15 H 19 N 2 O    =    37 atoms res:    1
 PM7 CHARGE=+1 EF NOXYZ PRNT=2 PDBOUT COMPFG GRAPHF
 854026

  O(HETATM    1  O   HET A   1)   0.00000000 +1    0.0000000 +1    0.0000000 +1
  N(HETATM    2  N1  HET A   1)   6.24861200 +1    0.0000000 +1    0.0000000 +1     1     0     0
  N(HETATM    3  N2  HET A   1)   2.23264100 +1   39.9674950 +1    0.0000000 +1     1     2     0
  C(HETATM    4  C1  HET A   1)   1.51239600 +1   58.2657730 +1  -22.6583860 +1     2     1     3
  C(HETATM    5  C2  HET A   1)   2.21227400 +1  148.6347080 +1  122.8393520 +1     4     2     1
  C(HETATM    6  C3  HET A   1)   1.37578500 +1   36.8270250 +1    0.9589340 +1     5     4     2
  C(HETATM    7  C4  HET A   1)   1.51938600 +1   98.6839460 +1 -119.5647700 +1     4     2     1
  C(HETATM    8  C5  HET A   1)   1.46617500 +1  103.5473120 +1    0.1551850 +1     4     2     1
  C(HETATM    9  C6  HET A   1)   1.51041600 +1   98.4386350 +1 -122.1241240 +1     5     4     2
  C(HETATM   10  C7  HET A   1)   1.40459300 +1  117.6673760 +1  152.4874100 +1     8     4     2
  C(HETATM   11  C8  HET A   1)   1.52549100 +1  107.9690970 +1 -151.3249830 +1     7     4     2
  C(HETATM   12  C9  HET A   1)   1.34014300 +1  121.2305810 +1    1.9081930 +1    11     7     4
  C(HETATM   13  C10 HET A   1)   1.33893900 +1  125.3233950 +1  179.9690140 +1     6     5     4
  C(HETATM   14  C11 HET A   1)   1.40152400 +1  124.3883100 +1  -34.9234420 +1     8     4     2
  C(HETATM   15  C12 HET A   1)   1.51373500 +1  115.6886530 +1  179.0913920 +1    11     7     4
  C(HETATM   16  C13 HET A   1)   1.43905900 +1  120.2623160 +1 -176.2727420 +1    14     8     4
  C(HETATM   17  C14 HET A   1)   1.21318400 +1   10.4161570 +1   29.1292460 +1     1     2     3
  C(HETATM   18  C15 HET A   1)   1.51623200 +1  126.2411120 +1   -0.1346690 +1    13     6     5
  H(HETATM   19 1H2  HET A   1)   1.10105700 +1  166.2621790 +1   -7.6714180 +1     5     4     2
  H(HETATM   20 1H4  HET A   1)   1.09329900 +1  110.8545640 +1   88.5276620 +1     7     4     2
  H(HETATM   21 2H4  HET A   1)   1.09561600 +1  113.2134760 +1  -31.8613500 +1     7     4     2
  H(HETATM   22 1H6  HET A   1)   1.09379800 +1  110.9545030 +1 -123.5187490 +1     9     5     4
  H(HETATM   23 2H6  HET A   1)   1.09457300 +1  111.1844750 +1  116.8880680 +1     9     5     4
  H(HETATM   24  H9  HET A   1)   1.09010500 +1  119.5801600 +1  178.5964320 +1    12    11     7
  H(HETATM   25 1H1  HET A   1)   1.03352100 +1   79.7244810 +1 -133.4374480 +1     2     1     3
  H(HETATM   26 2H1  HET A   1)   1.03306200 +1   70.8110630 +1  113.3811440 +1     2     1     3
  H(HETATM   27  H10 HET A   1)   1.08683200 +1  120.8535390 +1 -179.9036510 +1    13     6     5
  H(HETATM   28  H11 HET A   1)   1.08700100 +1  122.9493880 +1    1.0136200 +1    14     8     4
  H(HETATM   29 2H2  HET A   1)   1.00840200 +1   90.3527840 +1 -170.5660200 +1     3     1     2
  H(HETATM   30 1H12 HET A   1)   1.09228500 +1  110.5341020 +1   62.3160320 +1    15    11     7
  H(HETATM   31 2H12 HET A   1)   1.09230400 +1  110.6635770 +1  -57.5731790 +1    15    11     7
  H(HETATM   32 3H12 HET A   1)   1.09244600 +1  111.3774020 +1 -177.6619530 +1    15    11     7
  H(HETATM   33  H13 HET A   1)   1.08510800 +1  122.3646710 +1 -178.1623010 +1    16    14     8
  H(HETATM   34 1H15 HET A   1)   1.09207900 +1  110.0740020 +1  120.8887860 +1    18    13     6
  H(HETATM   35 2H15 HET A   1)   1.08980100 +1  113.2698760 +1    0.2204320 +1    18    13     6
  H(HETATM   36 3H15 HET A   1)   1.09206000 +1  110.0358160 +1 -120.3612730 +1    18    13     6
  H(HETATM   37 3H1  HET A   1)   1.03315700 +1  171.9844600 +1   30.7185710 +1     2     1     3

 XPARAM 
  1  1    0.0000  1  2    0.0000  1  3    0.0000  2  1    6.2486  2  2    0.0000
  2  3    0.0000  3  1    2.2326  3  2    0.6976  3  3    0.0000  4  1    1.5124
  4  2    1.0169  4  3    5.8877  5  1    2.2123  5  2    2.5942  5  3    2.1440
  6  1    1.3758  6  2    0.6428  6  3    0.0167  7  1    1.5194  7  2    1.7224
  7  3    4.1964  8  1    1.4662  8  2    1.8072  8  3    0.0027  9  1    1.5104
  9  2    1.7181  9  3    4.1517 10  1    1.4046 10  2    2.0537 10  3    2.6614
 11  1    1.5255 11  2    1.8844 11  3    3.6421 12  1    1.3401 12  2    2.1159
 12  3    0.0333 13  1    1.3389 13  2    2.1873 13  3    3.1411 14  1    1.4015
 14  2    2.1710 14  3    5.6737 15  1    1.5137 15  2    2.0191 15  3    3.1257
 16  1    1.4391 16  2    2.0990 16  3    3.2066 17  1    1.2132 17  2    0.1818
 17  3    0.5084 18  1    1.5162 18  2    2.2033 18  3    6.2808 19  1    1.1011
 19  2    2.9018 19  3    6.1493 20  1    1.0933 20  2    1.9348 20  3    1.5451
 21  1    1.0956 21  2    1.9759 21  3    5.7271 22  1    1.0938 22  2    1.9365
 22  3    4.1274 23  1    1.0946 23  2    1.9405 23  3    2.0401 24  1    1.0901
 24  2    2.0871 24  3    3.1171 25  1    1.0335 25  2    1.3915 25  3    3.9543
 26  1    1.0331 26  2    1.2359 26  3    1.9789 27  1    1.0868 27  2    2.1093
 27  3    3.1433 28  1    1.0870 28  2    2.1459 28  3    0.0177 29  1    1.0084
 29  2    1.5770 29  3    3.3062 30  1    1.0923 30  2    1.9292 30  3    1.0876
 31  1    1.0923 31  2    1.9314 31  3    5.2783 32  1    1.0924 32  2    1.9439
 32  3    3.1824 33  1    1.0851 33  2    2.1357 33  3    3.1737 34  1    1.0921
 34  2    1.9212 34  3    2.1099 35  1    1.0898 35  2    1.9769 35  3    0.0038
 36  1    1.0921 36  2    1.9205 36  3    4.1825 37  1    1.0332 37  2    3.0017
 37  3    0.5361
 grad
      -0.00000   -0.00000   -0.00001   77.84536    0.00000    0.00000 -130.51563  -70.85358
       0.00000 -102.91194  171.45643  -30.54676 -155.46384  215.90461  242.67376  -98.74111
    -212.31423   22.49690 -235.18161  317.22883 -226.43462 -116.09499   -8.94157   38.20702
     -67.45301   77.88723   19.64241   -5.14767  -56.03536   -7.87658  -49.08898 -443.17724
      62.48871  100.37091 -171.70748   26.78348  -17.42969    4.19393   -0.42275  -30.39516
     -16.66381    2.49438   19.35425    3.48682   -0.21232   93.13883   -3.80015   -0.07004
      17.08809   86.55830  -11.24331   24.67408    4.06215   -0.46894  -56.89585   67.72468
      -1.51106  -12.59620   -4.05176   -2.12438   -9.53775   -5.66614    2.54328  -14.14791
      -1.40558    1.23202  -13.14916   -0.09532   -0.85578   -5.48943    0.23605    1.26326
     -12.89339  -13.29490   21.46189   -3.24798    1.20516    5.15937   -2.31738   -6.19132
      -0.23725    2.45337   -2.04257   -0.77928  -13.34082   -1.48941    0.47087   -4.68801
      -1.80115   -0.52315   -4.08991   -2.58733    0.37231   -4.46898   -2.40964    0.20381
       0.71826    3.86711    1.00722   -5.97475   -1.37668   -0.12180   -4.14797   -0.30034
       0.23972   -5.88858   -1.32407   -0.12721    0.41850    7.18415    0.60781
 CYCLE:     1 TIME:   0.025 TIME LEFT:  2.00D  GRAD.:   873.214 HEAT:  207.8560

          HESSIAN HAS  0 NEGATIVE EIGENVALUE(S)
  MIN SEARCH, CORRECT HESSIAN, TRYING PURE NR STEP
 LAMBDA THAT MINIMIZES ALONG ALL MODES =        0.000000000
 PURE NR-STEP HAS LENGTH   2.23897
 LAMBDA THAT MINIMIZES ALONG ALL MODES =     -631.645107483
 P-RFO-STEP   HAS LENGTH   0.76367
 LAMBDA THAT MINIMIZES ALONG ALL MODES =    -3695.645105049
 QA/TRIM-STEP HAS LENGTH   0.20000

  HEAT OF FORMATION        232.90265044251282    
 PARAMETERS       -0.004  -0.013   0.006   6.228  -0.001   0.012   2.256   0.706
   0.005   1.525   0.985   5.899   2.236   2.542   2.080   1.392   0.684   0.015

   1.560   1.651   4.255   1.485   1.800  -0.006   1.515   1.703   4.148   1.397

   2.066   2.663   1.527   1.992   3.626   1.312   2.148   0.026   1.333   2.187

   3.140   1.397   2.183   5.672   1.501   2.019   3.126   1.410   2.101   3.206

   1.205   0.153   0.517   1.499   2.213   6.280   1.109   2.888   6.149   1.094

   1.934   1.546   1.094   1.980   5.726   1.094   1.938   4.127   1.095   1.940

   2.040   1.089   2.087   3.117   1.034   1.395   3.949   1.032   1.235   1.978

   1.085   2.111   3.143   1.084   2.144   0.018   1.009   1.577   3.306   1.091

   1.928   1.088   1.090   1.934   5.278   1.091   1.945   3.182   1.082   2.135

   3.173   1.091   1.921   2.110   1.089   1.974   0.004   1.091   1.922   4.182

   1.031   2.998   0.535
 GRADIENT         -0.000  -0.000  -0.000 -79.207   0.000   0.000  79.685-115.575
   0.000-110.091-582.361 -24.237 -44.915-170.845-123.546 -37.810 -36.662 -17.438

 106.082-311.739 136.399  90.476-457.592-218.280 -21.718  87.967  21.904  40.685

 197.129   6.333  83.754 319.078  12.997 -63.595 164.337  10.830 -15.885  -6.382

   0.608   5.471-158.425  13.203   1.354   6.297  -2.099  47.527  87.570  -5.631

   2.267  83.604 -10.086  10.018   6.506  -0.410  -8.900  24.434 -14.379 -12.857

   4.346   0.849 -10.730   0.033   1.541  -9.380   0.203  -1.975 -10.998   3.408

  -2.136  12.475 -37.148  -0.096 -12.321 -13.847  23.163  -4.493  -1.090   3.550

  -5.711  -2.739   0.200  -1.714  -0.289  -1.474 -15.615   3.699   1.786  -6.246

  -2.941  -0.759  -6.010  -2.782   0.593  -6.458  -3.928   0.265   4.205  -6.779

   0.231  -7.612  -2.620  -0.082  -6.120  -1.932   0.376  -7.916  -2.139  -0.134

   0.811   9.525   0.934
       HoF         ACTUAL,  PREDICTED ENERGY CHANGE, RATIO
   232.9026504    25.0466770        -158.1596788   -0.1583632
 UNACCEPTABLE RATIO, REJECTING STEP, REDUCING DMAX TO 0.1000
  MIN SEARCH, CORRECT HESSIAN, TRYING PURE NR STEP
 LAMBDA THAT MINIMIZES ALONG ALL MODES =        0.000000000
 PURE NR-STEP HAS LENGTH   2.23897
 LAMBDA THAT MINIMIZES ALONG ALL MODES =     -631.645107483
 P-RFO-STEP   HAS LENGTH   0.76367
 LAMBDA THAT MINIMIZES ALONG ALL MODES =    -7904.546434050
 QA/TRIM-STEP HAS LENGTH   0.10000

  HEAT OF FORMATION        191.02145653386833    
 PARAMETERS       -0.002  -0.007   0.003   6.238  -0.000   0.006   2.245   0.702
   0.003   1.519   1.001   5.893   2.225   2.568   2.113   1.385   0.663   0.016

   1.541   1.687   4.225   1.476   1.804  -0.002   1.513   1.711   4.150   1.401

   2.060   2.662   1.526   1.938   3.635   1.325   2.132   0.030   1.336   2.187

   3.141   1.399   2.177   5.673   1.507   2.019   3.126   1.424   2.100   3.206

   1.209   0.168   0.513   1.507   2.208   6.281   1.106   2.895   6.149   1.094

   1.935   1.545   1.095   1.978   5.727   1.094   1.937   4.127   1.095   1.940

   2.040   1.089   2.087   3.117   1.034   1.393   3.952   1.032   1.235   1.979

   1.086   2.110   3.143   1.086   2.145   0.018   1.009   1.577   3.306   1.092

   1.928   1.088   1.091   1.933   5.278   1.092   1.944   3.182   1.084   2.135

   3.173   1.092   1.921   2.110   1.089   1.976   0.004   1.091   1.921   4.182

   1.032   3.000   0.536
 GRADIENT         -0.000  -0.000  -0.000  17.284   0.000   0.000 -35.122 -67.402
   0.000-116.862-184.305 -27.059 -99.462-102.031 -57.546 -61.368-115.399  -2.151

  51.122-221.887  77.502 -26.075-245.486 -91.740 -42.808  88.566  23.770   3.349

  59.553  -4.109  66.731 221.061  40.256 -36.221 123.526  23.417 -15.805  -1.230

   0.086 -11.113 -94.467   8.033  10.410   4.988  -1.306  68.564  45.687  -2.667

   6.103  84.440 -10.476  17.151   5.339  -0.357 -22.986  40.724 -10.235 -12.532

   0.152  -0.586  -9.955  -2.685   1.975 -11.365  -0.612  -0.496 -11.682   1.478

  -1.221   9.617 -24.686   0.278 -12.532 -13.525  22.082  -3.828   0.090   4.348

  -4.122  -4.368   0.086   0.252  -1.084  -1.144 -14.454   1.341   1.140  -5.476

  -2.417  -0.627  -5.070  -2.694   0.472  -5.478  -3.165   0.234   2.518  -1.564

   0.575  -6.831  -2.004  -0.094  -5.238  -1.146   0.304  -6.952  -1.797  -0.137

   0.630   8.373   0.780
       HoF         ACTUAL,  PREDICTED ENERGY CHANGE, RATIO
   191.0214565   -16.8345169         -81.6970035    0.2060604
     STEPSIZE USED IS  0.10000
 CALCULATED STEP
    -0.002099 -0.006719  0.002962 -0.010706 -0.000395  0.005778  0.012072  0.004249
     0.002629  0.006513 -0.015735  0.005367  0.012633 -0.026241 -0.030579  0.008734
     0.020668 -0.000634  0.021471 -0.035706  0.028401  0.009729 -0.003473 -0.004413
     0.002657 -0.007306 -0.001958 -0.004012  0.006216  0.000848  0.000664  0.053911
    -0.007507 -0.014848  0.015831 -0.003558 -0.002938 -0.000261 -0.000317 -0.002495
     0.006218 -0.000622 -0.006924 -0.000048  0.000007 -0.015309  0.000880 -0.000173
    -0.004094 -0.014270  0.004200 -0.008953  0.004798 -0.000258  0.004448 -0.006693
    -0.000285  0.000244 -0.000231  0.000242 -0.000600  0.001848 -0.000353  0.000115
     0.000619 -0.000173  0.000247 -0.000478  0.000083 -0.000775 -0.000033 -0.000248
     0.000124  0.001940 -0.002422 -0.000690 -0.000676 -0.000338 -0.001139  0.000743
    -0.000074 -0.001317 -0.001160 -0.000024  0.000206  0.000237  0.000078 -0.000589
    -0.000705  0.000047 -0.001149  0.001278 -0.000065 -0.000863  0.000312 -0.000050
    -0.001490 -0.000441 -0.000240 -0.000562 -0.000295  0.000001 -0.000533 -0.001373
    -0.000070 -0.000815  0.000634  0.000002 -0.001353 -0.002038 -0.000602
     NEW TRUST RADIUS =  0.10000

     HESSIAN IS BEING UPDATED USING THE BFGS UPDATE

*REMARK   3 HET = Not identified; C 15 H 19 N 2 O    =    37 atoms res:    1
 PM7 CHARGE=+1 EF NOXYZ PRNT=2 PDBOUT COMPFG GRAPHF
 854026

  O(HETATM    1  O   HET A   1)  -0.00209921 +1   -0.0067187 +1    0.0029616 +1
  N(HETATM    2  N1  HET A   1)   6.23790566 +1   -0.0226597 +1    0.3310489 +1     1     0     0
  N(HETATM    3  N2  HET A   1)   2.24471335 +1   40.2109341 +1    0.1506410 +1     1     2     0
  C(HETATM    4  C1  HET A   1)   1.51890856 +1   57.3642309 +1  -22.3508680 +1     2     1     3
  C(HETATM    5  C2  HET A   1)   2.22490699 +1  147.1312022 +1  121.0872800 +1     4     2     1
  C(HETATM    6  C3  HET A   1)   1.38451860 +1   38.0111917 +1    0.9225809 +1     5     4     2
  C(HETATM    7  C4  HET A   1)   1.54085742 +1   96.6381154 +1 -117.9374840 +1     4     2     1
  C(HETATM    8  C5  HET A   1)   1.47590363 +1  103.3483092 +1   -0.0976461 +1     4     2     1
  C(HETATM    9  C6  HET A   1)   1.51307278 +1   98.0200193 +1 -122.2363334 +1     5     4     2
  C(HETATM   10  C7  HET A   1)   1.40058064 +1  118.0235080 +1  152.5360013 +1     8     4     2
  C(HETATM   11  C8  HET A   1)   1.52615510 +1  111.0579923 +1 -151.7551003 +1     7     4     2
  C(HETATM   12  C9  HET A   1)   1.32529532 +1  122.1376170 +1    1.7043537 +1    11     7     4
  C(HETATM   13  C10 HET A   1)   1.33600131 +1  125.3084317 +1  179.9508727 +1     6     5     4
  C(HETATM   14  C11 HET A   1)   1.39902865 +1  124.7445868 +1  -34.9590985 +1     8     4     2
  C(HETATM   15  C12 HET A   1)   1.50681116 +1  115.6858871 +1  179.0917814 +1    11     7     4
  C(HETATM   16  C13 HET A   1)   1.42375040 +1  120.3127093 +1 -176.2826493 +1    14     8     4
  C(HETATM   17  C14 HET A   1)   1.20909014 +1    9.5985640 +1   29.3699118 +1     1     2     3
  C(HETATM   18  C15 HET A   1)   1.50727935 +1  126.5159953 +1   -0.1494389 +1    13     6     5
  H(HETATM   19 1H2  HET A   1)   1.10550454 +1  165.8787193 +1   -7.6877627 +1     5     4     2
  H(HETATM   20 1H4  HET A   1)   1.09354335 +1  110.8413339 +1   88.5415099 +1     7     4     2
  H(HETATM   21 2H4  HET A   1)   1.09501572 +1  113.3193502 +1  -31.8815867 +1     7     4     2
  H(HETATM   22 1H6  HET A   1)   1.09391281 +1  110.9899679 +1 -123.5286725 +1     9     5     4
  H(HETATM   23 2H6  HET A   1)   1.09481992 +1  111.1570820 +1  116.8928025 +1     9     5     4
  H(HETATM   24  H9  HET A   1)   1.08933021 +1  119.5782738 +1  178.5822261 +1    12    11     7
  H(HETATM   25 1H1  HET A   1)   1.03364537 +1   79.8356515 +1 -133.5762280 +1     2     1     3
  H(HETATM   26 2H1  HET A   1)   1.03237238 +1   70.7723314 +1  113.3617815 +1     2     1     3
  H(HETATM   27  H10 HET A   1)   1.08569260 +1  120.8960988 +1 -179.9078687 +1    13     6     5
  H(HETATM   28  H11 HET A   1)   1.08568431 +1  122.8829004 +1    1.0122553 +1    14     8     4
  H(HETATM   29 2H2  HET A   1)   1.00860847 +1   90.3663646 +1 -170.5615587 +1     3     1     2
  H(HETATM   30 1H12 HET A   1)   1.09169633 +1  110.4936927 +1   62.3187022 +1    15    11     7
  H(HETATM   31 2H12 HET A   1)   1.09115527 +1  110.7368182 +1  -57.5768998 +1    15    11     7
  H(HETATM   32 3H12 HET A   1)   1.09158311 +1  111.3952735 +1 -177.6648153 +1    15    11     7
  H(HETATM   33  H13 HET A   1)   1.08361782 +1  122.3394204 +1 -178.1760361 +1    16    14     8
  H(HETATM   34 1H15 HET A   1)   1.09151664 +1  110.0571125 +1  120.8888325 +1    18    13     6
  H(HETATM   35 2H15 HET A   1)   1.08926761 +1  113.1911941 +1    0.2164111 +1    18    13     6
  H(HETATM   36 3H15 HET A   1)   1.09124462 +1  110.0721241 +1 -120.3611706 +1    18    13     6
  H(HETATM   37 3H1  HET A   1)   1.03180364 +1  171.8676885 +1   30.6840683 +1     2     1     3

 XPARAM 
  1  1   -0.0021  1  2   -0.0067  1  3    0.0030  2  1    6.2379  2  2   -0.0004
  2  3    0.0058  3  1    2.2447  3  2    0.7018  3  3    0.0026  4  1    1.5189
  4  2    1.0012  4  3    5.8931  5  1    2.2249  5  2    2.5679  5  3    2.1134
  6  1    1.3845  6  2    0.6634  6  3    0.0161  7  1    1.5409  7  2    1.6867
  7  3    4.2248  8  1    1.4759  8  2    1.8038  8  3   -0.0017  9  1    1.5131
  9  2    1.7108  9  3    4.1498 10  1    1.4006 10  2    2.0599 10  3    2.6623
 11  1    1.5262 11  2    1.9383 11  3    3.6346 12  1    1.3253 12  2    2.1317
 12  3    0.0297 13  1    1.3360 13  2    2.1870 13  3    3.1407 14  1    1.3990
 14  2    2.1772 14  3    5.6730 15  1    1.5068 15  2    2.0191 15  3    3.1257
 16  1    1.4238 16  2    2.0999 16  3    3.2065 17  1    1.2091 17  2    0.1675
 17  3    0.5126 18  1    1.5073 18  2    2.2081 18  3    6.2806 19  1    1.1055
 19  2    2.8951 19  3    6.1490 20  1    1.0935 20  2    1.9345 20  3    1.5453
 21  1    1.0950 21  2    1.9778 21  3    5.7267 22  1    1.0939 22  2    1.9371
 22  3    4.1272 23  1    1.0948 23  2    1.9401 23  3    2.0402 24  1    1.0893
 24  2    2.0870 24  3    3.1168 25  1    1.0336 25  2    1.3934 25  3    3.9518
 26  1    1.0324 26  2    1.2352 26  3    1.9785 27  1    1.0857 27  2    2.1100
 27  3    3.1432 28  1    1.0857 28  2    2.1447 28  3    0.0177 29  1    1.0086
 29  2    1.5772 29  3    3.3063 30  1    1.0917 30  2    1.9285 30  3    1.0877
 31  1    1.0912 31  2    1.9327 31  3    5.2783 32  1    1.0916 32  2    1.9442
 32  3    3.1823 33  1    1.0836 33  2    2.1352 33  3    3.1734 34  1    1.0915
 34  2    1.9209 34  3    2.1099 35  1    1.0893 35  2    1.9756 35  3    0.0038
 36  1    1.0912 36  2    1.9211 36  3    4.1825 37  1    1.0318 37  2    2.9997
 37  3    0.5355
 grad
      -0.00000   -0.00000   -0.00001   17.28355    0.00000    0.00000  -35.12204  -67.40243
       0.00000 -116.86216 -184.30531  -27.05869  -99.46212 -102.03086  -57.54628  -61.36765
    -115.39903   -2.15056   51.12233 -221.88717   77.50210  -26.07528 -245.48582  -91.73954
     -42.80807   88.56554   23.77046    3.34906   59.55281   -4.10945   66.73117  221.06112
      40.25569  -36.22054  123.52589   23.41740  -15.80503   -1.22964    0.08622  -11.11262
     -94.46691    8.03345   10.41019    4.98811   -1.30643   68.56357   45.68711   -2.66711
       6.10318   84.44017  -10.47573   17.15064    5.33860   -0.35674  -22.98635   40.72362
     -10.23540  -12.53175    0.15233   -0.58640   -9.95486   -2.68479    1.97453  -11.36470
      -0.61247   -0.49631  -11.68235    1.47815   -1.22099    9.61681  -24.68556    0.27805
     -12.53156  -13.52467   22.08217   -3.82812    0.09033    4.34762   -4.12219   -4.36771
       0.08612    0.25171   -1.08446   -1.14392  -14.45418    1.34134    1.14003   -5.47635
      -2.41736   -0.62657   -5.07018   -2.69387    0.47247   -5.47781   -3.16528    0.23361
       2.51785   -1.56403    0.57492   -6.83052   -2.00377   -0.09369   -5.23812   -1.14554
       0.30353   -6.95244   -1.79734   -0.13693    0.62958    8.37299    0.78010
 CYCLE:     2 TIME:   0.034 TIME LEFT:  2.00D  GRAD.:   580.588 HEAT:  191.0215

          HESSIAN HAS  0 NEGATIVE EIGENVALUE(S)
  MIN SEARCH, CORRECT HESSIAN, TRYING PURE NR STEP
 LAMBDA THAT MINIMIZES ALONG ALL MODES =        0.000000000
 PURE NR-STEP HAS LENGTH   0.91468
 LAMBDA THAT MINIMIZES ALONG ALL MODES =     -211.238441258
 P-RFO-STEP   HAS LENGTH   0.56504
 LAMBDA THAT MINIMIZES ALONG ALL MODES =    -3253.116732695
 QA/TRIM-STEP HAS LENGTH   0.10000

  HEAT OF FORMATION        239.08407230181911    
 PARAMETERS       -0.007  -0.014   0.004   6.225  -0.006   0.008   2.256   0.714
   0.004   1.541   1.021   5.902   2.249   2.566   2.105   1.398   0.697   0.016

   1.544   1.701   4.227   1.485   1.846   0.015   1.520   1.684   4.143   1.396

   2.049   2.664   1.513   1.927   3.621   1.320   2.116   0.023   1.335   2.183

   3.141   1.398   2.195   5.671   1.499   2.014   3.126   1.400   2.088   3.207

   1.203   0.139   0.517   1.497   2.205   6.281   1.112   2.881   6.151   1.095

   1.933   1.546   1.096   1.978   5.726   1.095   1.936   4.127   1.096   1.938

   2.040   1.087   2.091   3.117   1.035   1.396   3.946   1.032   1.234   1.977

   1.085   2.110   3.143   1.084   2.143   0.018   1.011   1.576   3.306   1.092

   1.928   1.088   1.091   1.933   5.278   1.091   1.944   3.182   1.082   2.134

   3.173   1.092   1.920   2.110   1.089   1.974   0.004   1.091   1.921   4.183

   1.030   2.996   0.535
 GRADIENT         -0.000  -0.000  -0.000-305.290   0.000   0.000-123.179-117.487
   0.000 425.6951818.356  34.181-140.699  51.203-170.837 -64.463 -10.326  -2.503

  52.565-190.629  68.835 149.6312094.4361301.816 -16.484 -87.088  15.457  21.583

-219.811  -3.650  41.429 182.226  27.884 -51.847  92.501  16.685  -7.978 -13.291

  -0.071-243.9691405.045 -55.842   3.964   1.489  -1.626 362.535-673.619  -9.943

 280.954-319.167  39.135   8.293   4.509  -0.483 -19.016  35.890  -9.376 -12.105

   0.979   1.003  -8.907  -1.802   1.658 -20.181   4.553   8.047 -20.969   5.989

 -10.117   4.544 -18.782  -0.132  -7.811  -9.938  16.589  -1.985   1.564   5.510

  -5.342  -2.094  -0.111  -2.971   1.143  -0.489  -8.256   4.814   1.155  -6.101

  -3.202  -0.701  -5.721  -3.217   0.550  -6.185  -3.677   0.236 -41.498  39.527

   5.177  -7.447  -2.838  -0.216  -5.896  -2.486   0.300  -7.551  -2.516  -0.023

   0.624   7.997   0.754
       HoF         ACTUAL,  PREDICTED ENERGY CHANGE, RATIO
   239.0840723    48.0626158         -39.4677547   -1.2177692
 UNACCEPTABLE RATIO, REJECTING STEP, REDUCING DMAX TO 0.0500
  MIN SEARCH, CORRECT HESSIAN, TRYING PURE NR STEP
 LAMBDA THAT MINIMIZES ALONG ALL MODES =        0.000000000
 PURE NR-STEP HAS LENGTH   0.91468
 LAMBDA THAT MINIMIZES ALONG ALL MODES =     -211.238441258
 P-RFO-STEP   HAS LENGTH   0.56504
 LAMBDA THAT MINIMIZES ALONG ALL MODES =    -7459.751260760
 QA/TRIM-STEP HAS LENGTH   0.05000

  HEAT OF FORMATION        185.60844209826610    
 PARAMETERS       -0.004  -0.010   0.003   6.232  -0.003   0.006   2.249   0.708
   0.003   1.530   1.013   5.897   2.236   2.569   2.112   1.391   0.678   0.016

   1.541   1.697   4.224   1.480   1.825   0.006   1.517   1.698   4.147   1.398

   2.054   2.663   1.519   1.928   3.629   1.324   2.122   0.027   1.336   2.185

   3.141   1.399   2.185   5.672   1.503   2.017   3.126   1.413   2.094   3.207

   1.206   0.154   0.514   1.503   2.206   6.281   1.109   2.889   6.150   1.094

   1.934   1.545   1.096   1.978   5.726   1.095   1.937   4.127   1.096   1.939

   2.040   1.088   2.089   3.117   1.035   1.395   3.949   1.032   1.235   1.978

   1.086   2.110   3.143   1.085   2.144   0.018   1.010   1.577   3.306   1.092

   1.928   1.088   1.091   1.933   5.278   1.092   1.944   3.182   1.083   2.135

   3.173   1.092   1.920   2.110   1.089   1.975   0.004   1.091   1.921   4.183

   1.031   2.998   0.535
 GRADIENT         -0.000  -0.000  -0.000 -56.033   0.000   0.000 -82.252 -77.021
   0.000  74.696 633.786  -5.952-110.893 -28.366 -89.006 -66.682 -64.730  -0.525

  41.553-187.715  62.343 -13.493 632.639 380.310 -35.734  17.559  19.952   0.930

 -80.557  -4.439  50.029 179.866  37.547 -39.061  98.496  21.597 -11.437  -7.330

  -0.064-106.568 414.359 -25.029   7.893   3.000  -1.373 140.961-217.459   8.948

  68.881 -69.394   7.341  13.290   4.864  -0.427 -22.959  40.314  -9.226 -12.284

   0.185   0.082  -9.390  -2.491   1.828 -15.469   1.871   3.803 -15.907   3.551

  -5.505   6.302 -20.078   0.145 -10.011 -11.535  19.159  -2.742   1.034   5.036

  -4.587  -3.223  -0.045  -1.175   0.032  -0.813 -11.165   3.589   1.001  -5.717

  -2.770  -0.660  -5.312  -2.960   0.504  -5.744  -3.352   0.230 -15.692  16.447

   2.051  -7.057  -2.384  -0.150  -5.481  -1.743   0.298  -7.154  -2.128  -0.078

   0.656   8.122   0.755
       HoF         ACTUAL,  PREDICTED ENERGY CHANGE, RATIO
   185.6084421    -5.4130144         -22.1642041    0.2442233
     STEPSIZE USED IS  0.05000
 CALCULATED STEP
    -0.002351 -0.002849  0.000370 -0.005939 -0.003017  0.000709  0.004670  0.005813
     0.000329  0.011245  0.011512  0.003850  0.011385  0.001471 -0.001480  0.006345
     0.014833 -0.000188 -0.000325  0.010618 -0.001002  0.003656  0.021569  0.008175
     0.003616 -0.012623 -0.002916 -0.002239 -0.006198  0.000645 -0.006872 -0.010487
    -0.005902 -0.001407 -0.009557 -0.003185 -0.000165 -0.001943 -0.000029 -0.000367
     0.008201 -0.000913 -0.003590 -0.002539  0.000148 -0.010955 -0.006263  0.000261
    -0.003087 -0.013150  0.001745 -0.004510 -0.001989  0.000023  0.003038 -0.006314
     0.001026  0.000909 -0.000544  0.000123  0.000526  0.000009 -0.000277  0.000807
    -0.000404  0.000014  0.000840 -0.000760  0.000149 -0.001335  0.001832 -0.000073
     0.000873  0.001187 -0.002839 -0.000162 -0.000665 -0.000554 -0.000167  0.000046
    -0.000011 -0.000651 -0.000566  0.000128  0.001074 -0.000635 -0.000109  0.000052
    -0.000385  0.000080 -0.000065 -0.000104 -0.000058  0.000014 -0.000179 -0.000029
    -0.000858 -0.000517 -0.000099  0.000196 -0.000381  0.000015  0.000032 -0.000611
    -0.000039  0.000173 -0.000288  0.000019 -0.000625 -0.001723 -0.000157
     NEW TRUST RADIUS =  0.05000
*REMARK   3 HET = Not identified; C 15 H 19 N 2 O    =    37 atoms res:    1
 PM7 CHARGE=+1 EF NOXYZ PRNT=2 PDBOUT COMPFG GRAPHF
 854026

  O(HETATM    1  O   HET A   1)  -0.00444996 +1   -0.0095672 +1    0.0033312 +1
  N(HETATM    2  N1  HET A   1)   6.23196642 +1   -0.1955239 +1    0.3716911 +1     1     0     0
  N(HETATM    3  N2  HET A   1)   2.24938316 +1   40.5439737 +1    0.1694851 +1     1     2     0
  C(HETATM    4  C1  HET A   1)   1.53015365 +1   58.0237970 +1  -22.1302718 +1     2     1     3
  C(HETATM    5  C2  HET A   1)   2.23629211 +1  147.2154968 +1  121.0025080 +1     4     2     1
  C(HETATM    6  C3  HET A   1)   1.39086406 +1   38.8610795 +1    0.9118164 +1     5     4     2
  C(HETATM    7  C4  HET A   1)   1.54053272 +1   97.2464587 +1 -117.9949166 +1     4     2     1
  C(HETATM    8  C5  HET A   1)   1.47955982 +1  104.5841211 +1    0.3707398 +1     4     2     1
  C(HETATM    9  C6  HET A   1)   1.51668840 +1   97.2967486 +1 -122.4034362 +1     5     4     2
  C(HETATM   10  C7  HET A   1)   1.39834196 +1  117.6684163 +1  152.5729772 +1     8     4     2
  C(HETATM   11  C8  HET A   1)   1.51928348 +1  110.4571327 +1 -152.0932360 +1     7     4     2
  C(HETATM   12  C9  HET A   1)   1.32388816 +1  121.5900484 +1    1.5218428 +1    11     7     4
  C(HETATM   13  C10 HET A   1)   1.33583591 +1  125.1971064 +1  179.9492315 +1     6     5     4
  C(HETATM   14  C11 HET A   1)   1.39866130 +1  125.2144787 +1  -35.0113985 +1     8     4     2
  C(HETATM   15  C12 HET A   1)   1.50322095 +1  115.5404414 +1  179.1002338 +1    11     7     4
  C(HETATM   16  C13 HET A   1)   1.41279571 +1  119.9538924 +1 -176.2677215 +1    14     8     4
  C(HETATM   17  C14 HET A   1)   1.20600312 +1    8.8451038 +1   29.4698941 +1     1     2     3
  C(HETATM   18  C15 HET A   1)   1.50276982 +1  126.4020420 +1   -0.1481408 +1    13     6     5
  H(HETATM   19 1H2  HET A   1)   1.10854258 +1  165.5169333 +1   -7.6289858 +1     5     4     2
  H(HETATM   20 1H4  HET A   1)   1.09445259 +1  110.8101756 +1   88.5485849 +1     7     4     2
  H(HETATM   21 2H4  HET A   1)   1.09554191 +1  113.3198780 +1  -31.8974376 +1     7     4     2
  H(HETATM   22 1H6  HET A   1)   1.09471940 +1  110.9668263 +1 -123.5278583 +1     9     5     4
  H(HETATM   23 2H6  HET A   1)   1.09565943 +1  111.1135297 +1  116.9013663 +1     9     5     4
  H(HETATM   24  H9  HET A   1)   1.08799553 +1  119.6832537 +1  178.5780202 +1    12    11     7
  H(HETATM   25 1H1  HET A   1)   1.03451886 +1   79.9036574 +1 -133.7389021 +1     2     1     3
  H(HETATM   26 2H1  HET A   1)   1.03221009 +1   70.7342050 +1  113.3300654 +1     2     1     3
  H(HETATM   27  H10 HET A   1)   1.08552607 +1  120.8987168 +1 -179.9084790 +1    13     6     5
  H(HETATM   28  H11 HET A   1)   1.08503323 +1  122.8504714 +1    1.0195759 +1    14     8     4
  H(HETATM   29 2H2  HET A   1)   1.00968251 +1   90.3299648 +1 -170.5678312 +1     3     1     2
  H(HETATM   30 1H12 HET A   1)   1.09174789 +1  110.4716586 +1   62.3232932 +1    15    11     7
  H(HETATM   31 2H12 HET A   1)   1.09108983 +1  110.7308676 +1  -57.5802111 +1    15    11     7
  H(HETATM   32 3H12 HET A   1)   1.09159730 +1  111.3850315 +1 -177.6664935 +1    15    11     7
  H(HETATM   33  H13 HET A   1)   1.08275984 +1  122.3098122 +1 -178.1816826 +1    16    14     8
  H(HETATM   34 1H15 HET A   1)   1.09171217 +1  110.0352995 +1  120.8896792 +1    18    13     6
  H(HETATM   35 2H15 HET A   1)   1.08929946 +1  113.1561633 +1    0.2141642 +1    18    13     6
  H(HETATM   36 3H15 HET A   1)   1.09141759 +1  110.0556213 +1 -120.3600655 +1    18    13     6
  H(HETATM   37 3H1  HET A   1)   1.03117865 +1  171.7689530 +1   30.6750890 +1     2     1     3

 XPARAM 
  1  1   -0.0044  1  2   -0.0096  1  3    0.0033  2  1    6.2320  2  2   -0.0034
  2  3    0.0065  3  1    2.2494  3  2    0.7076  3  3    0.0030  4  1    1.5302
  4  2    1.0127  4  3    5.8969  5  1    2.2363  5  2    2.5694  5  3    2.1119
  6  1    1.3909  6  2    0.6783  6  3    0.0159  7  1    1.5405  7  2    1.6973
  7  3    4.2238  8  1    1.4796  8  2    1.8253  8  3    0.0065  9  1    1.5167
  9  2    1.6981  9  3    4.1468 10  1    1.3983 10  2    2.0537 10  3    2.6629
 11  1    1.5193 11  2    1.9278 11  3    3.6287 12  1    1.3239 12  2    2.1221
 12  3    0.0266 13  1    1.3358 13  2    2.1851 13  3    3.1407 14  1    1.3987
 14  2    2.1854 14  3    5.6721 15  1    1.5032 15  2    2.0166 15  3    3.1259
 16  1    1.4128 16  2    2.0936 16  3    3.2067 17  1    1.2060 17  2    0.1544
 17  3    0.5143 18  1    1.5028 18  2    2.2061 18  3    6.2806 19  1    1.1085
 19  2    2.8888 19  3    6.1500 20  1    1.0945 20  2    1.9340 20  3    1.5455
 21  1    1.0955 21  2    1.9778 21  3    5.7265 22  1    1.0947 22  2    1.9367
 22  3    4.1272 23  1    1.0957 23  2    1.9393 23  3    2.0403 24  1    1.0880
 24  2    2.0889 24  3    3.1168 25  1    1.0345 25  2    1.3946 25  3    3.9490
 26  1    1.0322 26  2    1.2345 26  3    1.9780 27  1    1.0855 27  2    2.1101
 27  3    3.1432 28  1    1.0850 28  2    2.1441 28  3    0.0178 29  1    1.0097
 29  2    1.5766 29  3    3.3062 30  1    1.0917 30  2    1.9281 30  3    1.0877
 31  1    1.0911 31  2    1.9326 31  3    5.2782 32  1    1.0916 32  2    1.9440
 32  3    3.1823 33  1    1.0828 33  2    2.1347 33  3    3.1733 34  1    1.0917
 34  2    1.9205 34  3    2.1099 35  1    1.0893 35  2    1.9749 35  3    0.0037
 36  1    1.0914 36  2    1.9208 36  3    4.1825 37  1    1.0312 37  2    2.9979
 37  3    0.5354
 grad
      -0.00000   -0.00000   -0.00001  -56.03255    0.00000    0.00000  -82.25182  -77.02059
       0.00000   74.69640  633.78596   -5.95168 -110.89337  -28.36618  -89.00633  -66.68193
     -64.73029   -0.52488   41.55271 -187.71533   62.34281  -13.49349  632.63872  380.31040
     -35.73449   17.55932   19.95174    0.93003  -80.55744   -4.43923   50.02877  179.86633
      37.54692  -39.06092   98.49563   21.59741  -11.43662   -7.32977   -0.06366 -106.56758
     414.35936  -25.02925    7.89266    2.99975   -1.37332  140.96051 -217.45860    8.94821
      68.88123  -69.39374    7.34106   13.29011    4.86391   -0.42660  -22.95908   40.31389
      -9.22605  -12.28445    0.18530    0.08246   -9.39026   -2.49083    1.82770  -15.46947
       1.87088    3.80317  -15.90684    3.55072   -5.50451    6.30217  -20.07804    0.14527
     -10.01079  -11.53523   19.15932   -2.74199    1.03405    5.03576   -4.58689   -3.22297
      -0.04477   -1.17523    0.03246   -0.81284  -11.16505    3.58906    1.00141   -5.71681
      -2.77006   -0.65968   -5.31152   -2.96006    0.50365   -5.74429   -3.35184    0.23036
     -15.69219   16.44695    2.05087   -7.05750   -2.38423   -0.14970   -5.48102   -1.74262
       0.29838   -7.15372   -2.12846   -0.07804    0.65579    8.12213    0.75538
 CYCLE:     3 TIME:   0.036 TIME LEFT:  2.00D  GRAD.:  1166.739 HEAT:  185.6084

          HESSIAN HAS  0 NEGATIVE EIGENVALUE(S)
  MIN SEARCH, CORRECT HESSIAN, TRYING PURE NR STEP
 LAMBDA THAT MINIMIZES ALONG ALL MODES =        0.000000000
 PURE NR-STEP HAS LENGTH   2.02300
 LAMBDA THAT MINIMIZES ALONG ALL MODES =     -319.673796346
 P-RFO-STEP   HAS LENGTH   0.73527
 LAMBDA THAT MINIMIZES ALONG ALL MODES =    -8918.341117884
 QA/TRIM-STEP HAS LENGTH   0.05000

  HEAT OF FORMATION        164.74879183067969    
 PARAMETERS       -0.007  -0.010   0.006   6.230  -0.004   0.007   2.253   0.715
   0.004   1.535   1.001   5.900   2.247   2.578   2.119   1.396   0.689   0.018

   1.536   1.721   4.218   1.480   1.814  -0.004   1.521   1.694   4.145   1.397

   2.055   2.664   1.512   1.909   3.625   1.326   2.110   0.025   1.336   2.187

   3.141   1.404   2.178   5.673   1.501   2.018   3.127   1.401   2.102   3.207

   1.201   0.151   0.517   1.501   2.210   6.281   1.111   2.885   6.151   1.095

   1.934   1.546   1.097   1.979   5.726   1.096   1.937   4.127   1.097   1.939

   2.041   1.087   2.092   3.117   1.036   1.397   3.947   1.032   1.235   1.978

   1.086   2.111   3.143   1.084   2.144   0.018   1.011   1.577   3.306   1.092

   1.928   1.088   1.092   1.934   5.278   1.092   1.945   3.183   1.083   2.135

   3.173   1.092   1.921   2.110   1.089   1.975   0.004   1.092   1.922   4.183

   1.031   2.997   0.535
 GRADIENT         -0.000  -0.000  -0.000   2.038   0.000   0.000 -10.577 -19.713
   0.000 -61.650 -58.633 -18.736 -71.778  46.548  12.097 -76.044 -32.060   8.561

 -31.353 -30.701 -17.851 -22.243 -59.321 -20.042 -34.187  48.630  13.482   0.362

  20.213  -3.714   8.975  -7.687  42.769 -10.094   8.711  22.248  -5.814 -11.155

  -0.039 -22.317  -8.369  -1.199   7.262   1.883  -1.151  55.422   1.337   5.951

  -6.204  20.646  -4.550  11.868   5.839  -0.387 -30.099  46.753  -6.305 -11.987

  -0.325   0.526  -8.513  -2.264   1.547 -12.163   1.727   2.112 -12.350   2.880

  -3.254  -0.966  -8.842   0.050  -8.693 -11.490  17.088  -2.680   0.845   4.870

  -4.648  -1.863  -0.211  -2.012   1.309  -0.757  -9.762   2.636   1.128  -5.703

  -2.732  -0.605  -5.146  -2.827   0.438  -5.608  -3.156   0.226  -2.973   1.322

   1.412  -6.817  -2.288  -0.102  -5.474  -1.756   0.250  -6.811  -2.018  -0.097

   1.310   9.009   0.899
       HoF         ACTUAL,  PREDICTED ENERGY CHANGE, RATIO
   164.7487918   -20.8596503         -31.1914692    0.6687614
     STEPSIZE USED IS  0.05000
 CALCULATED STEP
    -0.002543 -0.000314  0.002951 -0.001538 -0.000928  0.000406  0.003796  0.007401
     0.001344  0.004897 -0.011614  0.003385  0.010336  0.008192  0.006747  0.004969
     0.010625  0.001657 -0.004916  0.024044 -0.006275  0.000656 -0.011120 -0.010145
     0.003814 -0.004296 -0.001707 -0.001387  0.001175  0.001039 -0.007116 -0.018519
    -0.003853  0.001635 -0.012097 -0.002022  0.000592  0.002200  0.000477  0.004976
    -0.007722  0.001025 -0.002076  0.001330  0.000690 -0.011519  0.008104  0.000300
    -0.005262 -0.002906  0.002407 -0.001723  0.003459  0.000448  0.002666 -0.003455
     0.001085  0.000931  0.000203  0.000258  0.001024  0.001365 -0.000009  0.001228
     0.000702  0.000077  0.001069  0.000061  0.000538 -0.001161  0.003001  0.000156
     0.001049  0.002123 -0.002003 -0.000043  0.000244 -0.000148  0.000181  0.000979
     0.000177 -0.000554 -0.000029  0.000285  0.001170  0.000335  0.000182  0.000128
     0.000396  0.000289  0.000474  0.001284  0.000163  0.000324  0.000901  0.000189
     0.000181 -0.000067  0.000045  0.000371  0.000560  0.000233  0.000000  0.000041
     0.000175  0.000576  0.000961  0.000232 -0.000574 -0.000916 -0.000089
     NEW TRUST RADIUS =  0.07071
*REMARK   3 HET = Not identified; C 15 H 19 N 2 O    =    37 atoms res:    1
 PM7 CHARGE=+1 EF NOXYZ PRNT=2 PDBOUT COMPFG GRAPHF
 854026

  O(HETATM    1  O   HET A   1)  -0.00699253 +1   -0.0098814 +1    0.0062823 +1
  N(HETATM    2  N1  HET A   1)   6.23042809 +1   -0.2486731 +1    0.3949488 +1     1     0     0
  N(HETATM    3  N2  HET A   1)   2.25317952 +1   40.9680188 +1    0.2464704 +1     1     2     0
  C(HETATM    4  C1  HET A   1)   1.53505066 +1   57.3583446 +1  -21.9363169 +1     2     1     3
  C(HETATM    5  C2  HET A   1)   2.24662839 +1  147.6848701 +1  121.3890651 +1     4     2     1
  C(HETATM    6  C3  HET A   1)   1.39583349 +1   39.4698641 +1    1.0067361 +1     5     4     2
  C(HETATM    7  C4  HET A   1)   1.53561685 +1   98.6241060 +1 -118.3544678 +1     4     2     1
  C(HETATM    8  C5  HET A   1)   1.48021549 +1  103.9469651 +1   -0.2105333 +1     4     2     1
  C(HETATM    9  C6  HET A   1)   1.52050234 +1   97.0506157 +1 -122.5012125 +1     5     4     2
  C(HETATM   10  C7  HET A   1)   1.39695520 +1  117.7357215 +1  152.6325288 +1     8     4     2
  C(HETATM   11  C8  HET A   1)   1.51216770 +1  109.3960504 +1 -152.3140070 +1     7     4     2
  C(HETATM   12  C9  HET A   1)   1.32552304 +1  120.8969238 +1    1.4059736 +1    11     7     4
  C(HETATM   13  C10 HET A   1)   1.33642758 +1  125.3231626 +1  179.9765795 +1     6     5     4
  C(HETATM   14  C11 HET A   1)   1.40363696 +1  124.7720598 +1  -34.9526766 +1     8     4     2
  C(HETATM   15  C12 HET A   1)   1.50114543 +1  115.6166357 +1  179.1397488 +1    11     7     4
  C(HETATM   16  C13 HET A   1)   1.40127712 +1  120.4182438 +1 -176.2505289 +1    14     8     4
  C(HETATM   17  C14 HET A   1)   1.20074087 +1    8.6785786 +1   29.6078307 +1     1     2     3
  C(HETATM   18  C15 HET A   1)   1.50104703 +1  126.6002403 +1   -0.1224485 +1    13     6     5
  H(HETATM   19 1H2  HET A   1)   1.11120888 +1  165.3189595 +1   -7.5668033 +1     5     4     2
  H(HETATM   20 1H4  HET A   1)   1.09538320 +1  110.8218003 +1   88.5633475 +1     7     4     2
  H(HETATM   21 2H4  HET A   1)   1.09656618 +1  113.3981053 +1  -31.8979666 +1     7     4     2
  H(HETATM   22 1H6  HET A   1)   1.09594771 +1  111.0070615 +1 -123.5234201 +1     9     5     4
  H(HETATM   23 2H6  HET A   1)   1.09672801 +1  111.1170508 +1  116.9322160 +1     9     5     4
  H(HETATM   24  H9  HET A   1)   1.08683482 +1  119.8551732 +1  178.5869486 +1    12    11     7
  H(HETATM   25 1H1  HET A   1)   1.03556828 +1   80.0252799 +1 -133.8536873 +1     2     1     3
  H(HETATM   26 2H1  HET A   1)   1.03216707 +1   70.7481826 +1  113.3216012 +1     2     1     3
  H(HETATM   27  H10 HET A   1)   1.08570709 +1  120.9548119 +1 -179.8983324 +1    13     6     5
  H(HETATM   28  H11 HET A   1)   1.08447899 +1  122.8488004 +1    1.0359103 +1    14     8     4
  H(HETATM   29 2H2  HET A   1)   1.01085256 +1   90.3491804 +1 -170.5574223 +1     3     1     2
  H(HETATM   30 1H12 HET A   1)   1.09187540 +1  110.4943277 +1   62.3398654 +1    15    11     7
  H(HETATM   31 2H12 HET A   1)   1.09156362 +1  110.8044263 +1  -57.5708600 +1    15    11     7
  H(HETATM   32 3H12 HET A   1)   1.09192138 +1  111.4366534 +1 -177.6556795 +1    15    11     7
  H(HETATM   33  H13 HET A   1)   1.08294095 +1  122.3059965 +1 -178.1791263 +1    16    14     8
  H(HETATM   34 1H15 HET A   1)   1.09208328 +1  110.0674061 +1  120.9030097 +1    18    13     6
  H(HETATM   35 2H15 HET A   1)   1.08929981 +1  113.1585357 +1    0.2241778 +1    18    13     6
  H(HETATM   36 3H15 HET A   1)   1.09199402 +1  110.1106734 +1 -120.3467560 +1    18    13     6
  H(HETATM   37 3H1  HET A   1)   1.03060506 +1  171.7164794 +1   30.6699943 +1     2     1     3

 XPARAM 
  1  1   -0.0070  1  2   -0.0099  1  3    0.0063  2  1    6.2304  2  2   -0.0043
  2  3    0.0069  3  1    2.2532  3  2    0.7150  3  3    0.0043  4  1    1.5351
  4  2    1.0011  4  3    5.9003  5  1    2.2466  5  2    2.5776  5  3    2.1186
  6  1    1.3958  6  2    0.6889  6  3    0.0176  7  1    1.5356  7  2    1.7213
  7  3    4.2175  8  1    1.4802  8  2    1.8142  8  3   -0.0037  9  1    1.5205
  9  2    1.6939  9  3    4.1451 10  1    1.3970 10  2    2.0549 10  3    2.6639
 11  1    1.5122 11  2    1.9093 11  3    3.6248 12  1    1.3255 12  2    2.1100
 12  3    0.0245 13  1    1.3364 13  2    2.1873 13  3    3.1412 14  1    1.4036
 14  2    2.1777 14  3    5.6731 15  1    1.5011 15  2    2.0179 15  3    3.1266
 16  1    1.4013 16  2    2.1017 16  3    3.2070 17  1    1.2007 17  2    0.1515
 17  3    0.5168 18  1    1.5010 18  2    2.2096 18  3    6.2810 19  1    1.1112
 19  2    2.8854 19  3    6.1511 20  1    1.0954 20  2    1.9342 20  3    1.5457
 21  1    1.0966 21  2    1.9792 21  3    5.7265 22  1    1.0959 22  2    1.9374
 22  3    4.1273 23  1    1.0967 23  2    1.9394 23  3    2.0409 24  1    1.0868
 24  2    2.0919 24  3    3.1169 25  1    1.0356 25  2    1.3967 25  3    3.9470
 26  1    1.0322 26  2    1.2348 26  3    1.9778 27  1    1.0857 27  2    2.1111
 27  3    3.1434 28  1    1.0845 28  2    2.1441 28  3    0.0181 29  1    1.0109
 29  2    1.5769 29  3    3.3064 30  1    1.0919 30  2    1.9285 30  3    1.0880
 31  1    1.0916 31  2    1.9339 31  3    5.2784 32  1    1.0919 32  2    1.9449
 32  3    3.1825 33  1    1.0829 33  2    2.1346 33  3    3.1734 34  1    1.0921
 34  2    1.9210 34  3    2.1102 35  1    1.0893 35  2    1.9750 35  3    0.0039
 36  1    1.0920 36  2    1.9218 36  3    4.1827 37  1    1.0306 37  2    2.9970
 37  3    0.5353
 grad
      -0.00000   -0.00000   -0.00001    2.03809    0.00000    0.00000  -10.57668  -19.71343
       0.00000  -61.64966  -58.63325  -18.73642  -71.77818   46.54762   12.09737  -76.04396
     -32.05996    8.56075  -31.35350  -30.70125  -17.85150  -22.24252  -59.32103  -20.04188
     -34.18718   48.63035   13.48175    0.36185   20.21327   -3.71375    8.97525   -7.68662
      42.76911  -10.09409    8.71112   22.24812   -5.81372  -11.15464   -0.03891  -22.31733
      -8.36886   -1.19932    7.26201    1.88327   -1.15099   55.42197    1.33677    5.95117
      -6.20390   20.64644   -4.55022   11.86845    5.83928   -0.38746  -30.09932   46.75296
      -6.30480  -11.98731   -0.32534    0.52575   -8.51305   -2.26435    1.54654  -12.16292
       1.72705    2.11155  -12.35032    2.88020   -3.25386   -0.96557   -8.84159    0.05024
      -8.69256  -11.48967   17.08837   -2.68009    0.84457    4.87017   -4.64775   -1.86339
      -0.21123   -2.01212    1.30902   -0.75681   -9.76203    2.63595    1.12822   -5.70266
      -2.73175   -0.60483   -5.14626   -2.82721    0.43787   -5.60764   -3.15611    0.22561
      -2.97270    1.32216    1.41208   -6.81716   -2.28774   -0.10164   -5.47353   -1.75622
       0.25032   -6.81093   -2.01819   -0.09717    1.30972    9.00899    0.89856
 CYCLE:     4 TIME:   0.019 TIME LEFT:  2.00D  GRAD.:   212.633 HEAT:  164.7488

          HESSIAN HAS  0 NEGATIVE EIGENVALUE(S)
  MIN SEARCH, CORRECT HESSIAN, TRYING PURE NR STEP
 LAMBDA THAT MINIMIZES ALONG ALL MODES =        0.000000000
 PURE NR-STEP HAS LENGTH   0.54330
 LAMBDA THAT MINIMIZES ALONG ALL MODES =      -71.054530556
 P-RFO-STEP   HAS LENGTH   0.42566
 LAMBDA THAT MINIMIZES ALONG ALL MODES =    -2106.661979244
 QA/TRIM-STEP HAS LENGTH   0.07071

  HEAT OF FORMATION        156.17209967585950    
 PARAMETERS       -0.013  -0.011   0.009   6.225  -0.005   0.008   2.254   0.724
   0.006   1.550   1.009   5.910   2.268   2.563   2.119   1.417   0.702   0.016

   1.539   1.742   4.222   1.483   1.820  -0.006   1.528   1.676   4.140   1.392

   2.049   2.667   1.502   1.905   3.608   1.324   2.102   0.016   1.334   2.192

   3.142   1.408   2.172   5.676   1.493   2.018   3.128   1.375   2.107   3.206

   1.196   0.144   0.521   1.492   2.209   6.282   1.120   2.867   6.154   1.098

   1.934   1.546   1.098   1.981   5.726   1.099   1.937   4.127   1.100   1.938

   2.043   1.085   2.096   3.117   1.037   1.402   3.940   1.032   1.234   1.976

   1.086   2.112   3.144   1.084   2.143   0.019   1.013   1.576   3.306   1.092

   1.929   1.089   1.092   1.935   5.279   1.092   1.946   3.183   1.083   2.134

   3.173   1.093   1.922   2.111   1.090   1.975   0.004   1.093   1.923   4.183

   1.029   2.993   0.535
 GRADIENT         -0.000  -0.000  -0.000  21.698   0.000   0.000 -32.120  15.436
   0.000 -24.240 157.214 -14.728 -40.503  45.425  51.241 -53.834  10.837   8.319

 -49.775  37.714 -41.107 -38.752  85.114  29.387 -35.708  47.402  10.256 -15.105

 -25.146   3.449 -17.156 -84.277  21.649  -4.058 -34.793   9.950  -5.149 -12.594

   0.103 -34.940  55.945  -6.647   0.820   0.224  -2.100  29.653 -32.958  12.154

 -11.979 -20.630  -1.558   3.813   6.009  -0.248 -23.015  43.130  -6.079 -11.174

   0.888   2.324  -6.894  -1.125   1.393 -10.593   2.444   3.311  -9.817   2.107

  -2.487  -5.632  -2.810  -1.606  -5.427  -9.216  12.865  -2.026   1.786   5.283

  -5.375  -0.987  -0.154  -4.553   4.002  -0.105  -5.569   2.216   0.742  -5.963

  -3.237  -0.580  -5.331  -2.882   0.456  -5.817  -3.358   0.210  -7.966   3.281

   2.489  -6.853  -2.730  -0.112  -5.823  -2.333   0.223  -6.820  -2.466  -0.060

   0.669   8.571   0.939
       HoF         ACTUAL,  PREDICTED ENERGY CHANGE, RATIO
   156.1720997    -8.5766922         -11.7699821    0.7286920
     STEPSIZE USED IS  0.07071
 CALCULATED STEP
    -0.006105 -0.001150  0.002991 -0.005834 -0.000576  0.001446  0.000331  0.008971
     0.001913  0.014938  0.008310  0.009571  0.021295 -0.014517  0.000860  0.020751
     0.013394 -0.001371  0.003881  0.020351  0.004640  0.002599  0.006166 -0.002106
     0.007167 -0.017956 -0.004743 -0.005380 -0.005579  0.002896 -0.009795 -0.004515
    -0.017237 -0.001420 -0.008395 -0.008522 -0.002824  0.004843  0.001222  0.004385
    -0.005477  0.002490 -0.007817 -0.000249  0.001783 -0.026588  0.005514 -0.001493
    -0.004954 -0.007052  0.003866 -0.009196 -0.000278  0.001334  0.008881 -0.017871
     0.003194  0.002647  0.000047  0.000169  0.001580  0.001416 -0.000292  0.002823
    -0.000386 -0.000581  0.002834 -0.001152  0.001918 -0.001473  0.004186  0.000361
     0.001673  0.004883 -0.007118 -0.000554 -0.000335 -0.001643  0.000095  0.000959
     0.000462 -0.000961 -0.000733  0.000708  0.002037 -0.000897 -0.000041  0.000424
     0.000974  0.000671  0.000349  0.001579  0.000205  0.000450  0.001433  0.000299
    -0.000315 -0.000743 -0.000271  0.000848  0.000935  0.000449  0.000312  0.000434
     0.000283  0.000906  0.001107  0.000445 -0.002018 -0.003773 -0.000145
     NEW TRUST RADIUS =  0.10000
*REMARK   3 HET = Not identified; C 15 H 19 N 2 O    =    37 atoms res:    1
 PM7 CHARGE=+1 EF NOXYZ PRNT=2 PDBOUT COMPFG GRAPHF
 854026

  O(HETATM    1  O   HET A   1)  -0.01309769 +1   -0.0110309 +1    0.0092736 +1
  N(HETATM    2  N1  HET A   1)   6.22459409 +1   -0.2816870 +1    0.4777781 +1     1     0     0
  N(HETATM    3  N2  HET A   1)   2.25351053 +1   41.4820278 +1    0.3560535 +1     1     2     0
  C(HETATM    4  C1  HET A   1)   1.54998846 +1   57.8344823 +1  -21.3879606 +1     2     1     3
  C(HETATM    5  C2  HET A   1)   2.26792305 +1  146.8531067 +1  121.4383260 +1     4     2     1
  C(HETATM    6  C3  HET A   1)   1.41658406 +1   40.2372974 +1    0.9281927 +1     5     4     2
  C(HETATM    7  C4  HET A   1)   1.53949746 +1   99.7901366 +1 -118.0886440 +1     4     2     1
  C(HETATM    8  C5  HET A   1)   1.48281411 +1  104.3002605 +1   -0.3311707 +1     4     2     1
  C(HETATM    9  C6  HET A   1)   1.52766980 +1   96.0217878 +1 -122.7729436 +1     5     4     2
  C(HETATM   10  C7  HET A   1)   1.39157522 +1  117.4160483 +1  152.7984701 +1     8     4     2
  C(HETATM   11  C8  HET A   1)   1.50237231 +1  109.1373816 +1 -153.3015909 +1     7     4     2
  C(HETATM   12  C9  HET A   1)   1.32410315 +1  120.4159250 +1    0.9176754 +1    11     7     4
  C(HETATM   13  C10 HET A   1)   1.33360324 +1  125.6006627 +1 -179.9534219 +1     6     5     4
  C(HETATM   14  C11 HET A   1)   1.40802239 +1  124.4582476 +1  -34.8100135 +1     8     4     2
  C(HETATM   15  C12 HET A   1)   1.49332839 +1  115.6023677 +1  179.2419050 +1    11     7     4
  C(HETATM   16  C13 HET A   1)   1.37468901 +1  120.7341940 +1 -176.3360629 +1    14     8     4
  C(HETATM   17  C14 HET A   1)   1.19578679 +1    8.2745097 +1   29.8293303 +1     1     2     3
  C(HETATM   18  C15 HET A   1)   1.49185055 +1  126.5843336 +1   -0.0460066 +1    13     6     5
  H(HETATM   19 1H2  HET A   1)   1.12008990 +1  164.2950030 +1   -7.3838255 +1     5     4     2
  H(HETATM   20 1H4  HET A   1)   1.09803037 +1  110.8244741 +1   88.5730041 +1     7     4     2
  H(HETATM   21 2H4  HET A   1)   1.09814633 +1  113.4792247 +1  -31.9147097 +1     7     4     2
  H(HETATM   22 1H6  HET A   1)   1.09877065 +1  110.9849526 +1 -123.5567326 +1     9     5     4
  H(HETATM   23 2H6  HET A   1)   1.09956168 +1  111.0510247 +1  117.0421377 +1     9     5     4
  H(HETATM   24  H9  HET A   1)   1.08536168 +1  120.0950301 +1  178.6076214 +1    12    11     7
  H(HETATM   25 1H1  HET A   1)   1.03724141 +1   80.3050659 +1 -134.2615385 +1     2     1     3
  H(HETATM   26 2H1  HET A   1)   1.03161257 +1   70.7289830 +1  113.2274494 +1     2     1     3
  H(HETATM   27  H10 HET A   1)   1.08580241 +1  121.0097564 +1 -179.8718869 +1    13     6     5
  H(HETATM   28  H11 HET A   1)   1.08351756 +1  122.8067963 +1    1.0764815 +1    14     8     4
  H(HETATM   29 2H2  HET A   1)   1.01288924 +1   90.2977786 +1 -170.5597454 +1     3     1     2
  H(HETATM   30 1H12 HET A   1)   1.09229907 +1  110.5501140 +1   62.3783318 +1    15    11     7
  H(HETATM   31 2H12 HET A   1)   1.09191235 +1  110.8948974 +1  -57.5591142 +1    15    11     7
  H(HETATM   32 3H12 HET A   1)   1.09237177 +1  111.5187477 +1 -177.6385196 +1    15    11     7
  H(HETATM   33  H13 HET A   1)   1.08262551 +1  122.2634352 +1 -178.1946712 +1    16    14     8
  H(HETATM   34 1H15 HET A   1)   1.09293172 +1  110.1209990 +1  120.9287474 +1    18    13     6
  H(HETATM   35 2H15 HET A   1)   1.08961170 +1  113.1833796 +1    0.2403787 +1    18    13     6
  H(HETATM   36 3H15 HET A   1)   1.09290016 +1  110.1741028 +1 -120.3212539 +1    18    13     6
  H(HETATM   37 3H1  HET A   1)   1.02858682 +1  171.5002791 +1   30.6616629 +1     2     1     3

 XPARAM 
  1  1   -0.0131  1  2   -0.0110  1  3    0.0093  2  1    6.2246  2  2   -0.0049
  2  3    0.0083  3  1    2.2535  3  2    0.7240  3  3    0.0062  4  1    1.5500
  4  2    1.0094  4  3    5.9099  5  1    2.2679  5  2    2.5631  5  3    2.1195
  6  1    1.4166  6  2    0.7023  6  3    0.0162  7  1    1.5395  7  2    1.7417
  7  3    4.2221  8  1    1.4828  8  2    1.8204  8  3   -0.0058  9  1    1.5277
  9  2    1.6759  9  3    4.1404 10  1    1.3916 10  2    2.0493 10  3    2.6668
 11  1    1.5024 11  2    1.9048 11  3    3.6076 12  1    1.3241 12  2    2.1017
 12  3    0.0160 13  1    1.3336 13  2    2.1921 13  3    3.1424 14  1    1.4080
 14  2    2.1722 14  3    5.6756 15  1    1.4933 15  2    2.0176 15  3    3.1284
 16  1    1.3747 16  2    2.1072 16  3    3.2055 17  1    1.1958 17  2    0.1444
 17  3    0.5206 18  1    1.4919 18  2    2.2093 18  3    6.2824 19  1    1.1201
 19  2    2.8675 19  3    6.1543 20  1    1.0980 20  2    1.9343 20  3    1.5459
 21  1    1.0981 21  2    1.9806 21  3    5.7262 22  1    1.0988 22  2    1.9371
 22  3    4.1267 23  1    1.0996 23  2    1.9382 23  3    2.0428 24  1    1.0854
 24  2    2.0961 24  3    3.1173 25  1    1.0372 25  2    1.4016 25  3    3.9399
 26  1    1.0316 26  2    1.2345 26  3    1.9762 27  1    1.0858 27  2    2.1120
 27  3    3.1438 28  1    1.0835 28  2    2.1434 28  3    0.0188 29  1    1.0129
 29  2    1.5760 29  3    3.3064 30  1    1.0923 30  2    1.9295 30  3    1.0887
 31  1    1.0919 31  2    1.9355 31  3    5.2786 32  1    1.0924 32  2    1.9464
 32  3    3.1828 33  1    1.0826 33  2    2.1339 33  3    3.1731 34  1    1.0929
 34  2    1.9220 34  3    2.1106 35  1    1.0896 35  2    1.9754 35  3    0.0042
 36  1    1.0929 36  2    1.9229 36  3    4.1832 37  1    1.0286 37  2    2.9932
 37  3    0.5351
 grad
      -0.00000   -0.00000   -0.00000   21.69842    0.00000    0.00000  -32.12021   15.43575
       0.00000  -24.24027  157.21395  -14.72764  -40.50277   45.42527   51.24102  -53.83441
      10.83749    8.31884  -49.77501   37.71446  -41.10668  -38.75181   85.11369   29.38729
     -35.70804   47.40229   10.25614  -15.10545  -25.14589    3.44907  -17.15616  -84.27732
      21.64911   -4.05760  -34.79346    9.94953   -5.14855  -12.59356    0.10298  -34.93972
      55.94520   -6.64699    0.81997    0.22425   -2.09986   29.65252  -32.95765   12.15426
     -11.97891  -20.63001   -1.55779    3.81264    6.00876   -0.24755  -23.01522   43.13041
      -6.07944  -11.17357    0.88819    2.32390   -6.89388   -1.12533    1.39311  -10.59303
       2.44434    3.31095   -9.81748    2.10681   -2.48693   -5.63204   -2.80982   -1.60600
      -5.42707   -9.21638   12.86538   -2.02597    1.78591    5.28263   -5.37524   -0.98704
      -0.15390   -4.55275    4.00213   -0.10542   -5.56885    2.21593    0.74204   -5.96258
      -3.23724   -0.57959   -5.33059   -2.88188    0.45625   -5.81673   -3.35787    0.21036
      -7.96622    3.28085    2.48887   -6.85318   -2.72990   -0.11162   -5.82260   -2.33348
       0.22258   -6.82045   -2.46632   -0.06013    0.66934    8.57142    0.93862
 CYCLE:     5 TIME:   0.018 TIME LEFT:  2.00D  GRAD.:   276.808 HEAT:  156.1721

          HESSIAN HAS  0 NEGATIVE EIGENVALUE(S)
  MIN SEARCH, CORRECT HESSIAN, TRYING PURE NR STEP
 LAMBDA THAT MINIMIZES ALONG ALL MODES =        0.000000000
 PURE NR-STEP HAS LENGTH   0.64066
 LAMBDA THAT MINIMIZES ALONG ALL MODES =      -63.984438336
 P-RFO-STEP   HAS LENGTH   0.47394
 LAMBDA THAT MINIMIZES ALONG ALL MODES =    -1106.762069303
 QA/TRIM-STEP HAS LENGTH   0.10000

  HEAT OF FORMATION        152.56320151673572    
 PARAMETERS       -0.023  -0.013   0.013   6.209  -0.001   0.013   2.253   0.719
   0.009   1.566   0.992   5.926   2.288   2.544   2.101   1.447   0.698   0.013

   1.549   1.757   4.236   1.490   1.825   0.012   1.539   1.644   4.132   1.387

   2.051   2.666   1.495   1.927   3.587   1.322   2.105   0.006   1.326   2.205

   3.143   1.415   2.170   5.679   1.482   2.021   3.131   1.342   2.118   3.198

   1.195   0.148   0.526   1.477   2.212   6.283   1.132   2.838   6.160   1.102

   1.934   1.545   1.100   1.983   5.725   1.103   1.937   4.125   1.103   1.937

   2.045   1.085   2.101   3.119   1.039   1.410   3.929   1.030   1.234   1.972

   1.086   2.114   3.144   1.083   2.141   0.019   1.015   1.575   3.306   1.093

   1.932   1.089   1.092   1.939   5.278   1.093   1.950   3.183   1.083   2.134

   3.172   1.094   1.925   2.111   1.090   1.977   0.004   1.094   1.926   4.183

   1.025   2.987   0.534
 GRADIENT         -0.000   0.000  -0.000 -70.875   0.000   0.000  42.850 -99.581
   0.000   6.900-153.245   0.530 -76.649  -2.757-111.980  -9.410  14.520  -2.391

  42.775-110.912  47.154  43.158  45.299  47.873  -0.428 -42.206  -8.685  43.054

  25.876  -8.210   7.552 110.022 -19.975 -46.653  49.350  -9.725 -15.910  -6.188

  -0.064 -17.574  24.637  -2.590 -10.619   0.422  -2.979 -23.637  -4.132   1.285

  -5.087   9.725  -2.328  -9.590   6.780  -0.217  -1.903  30.378  -8.392  -9.534

   3.960   4.768  -5.293   1.655   0.750  -9.982   6.379   5.164 -12.628   7.985

  -9.190  -0.575  -9.915  -2.372  -2.426  -7.172   8.611  -2.946   1.253   4.259

  -6.595  -0.438   0.029  -7.583   7.851  -1.302 -10.638   8.660   1.787  -6.188

  -3.743  -0.535  -5.706  -2.860   0.459  -6.082  -3.612   0.188  -7.229  -2.726

   0.163  -6.803  -3.332  -0.066  -6.274  -2.886   0.205  -6.819  -2.970  -0.055

  -0.427   9.106   1.245
       HoF         ACTUAL,  PREDICTED ENERGY CHANGE, RATIO
   152.5632015    -3.6088982         -13.8269045    0.2610055
     STEPSIZE USED IS  0.10000
 CALCULATED STEP
    -0.009650 -0.001856  0.003543 -0.015701  0.004200  0.004719 -0.000258 -0.004781
     0.002786  0.016000 -0.017372  0.015935  0.019605 -0.018619 -0.018780  0.030178
    -0.004585 -0.003286  0.009929  0.014927  0.013357  0.007091  0.004149  0.018239
     0.011166 -0.031803 -0.008113 -0.004701  0.001739 -0.000750 -0.007649  0.022080
    -0.020590 -0.002035  0.003463 -0.010164 -0.007303  0.013119  0.000477  0.007169
    -0.002491  0.003158 -0.011825  0.003094  0.002431 -0.033100  0.010759 -0.007555
    -0.000518  0.003153  0.005836 -0.014378  0.003151  0.000815  0.012337 -0.029901
     0.005522  0.004389 -0.000170 -0.001381  0.001801  0.002886 -0.000928  0.004090
    -0.000371 -0.001991  0.003908 -0.001273  0.002349 -0.000672  0.005334  0.001212
     0.001325  0.008689 -0.011291 -0.001298 -0.000518 -0.003745  0.000365  0.001764
     0.000304 -0.000510 -0.002612  0.000433  0.001644 -0.000878 -0.000381  0.000872
     0.002540  0.000741  0.000444  0.003901 -0.000135  0.000770  0.003477  0.000060
     0.000778 -0.000257 -0.001581  0.001477  0.002552  0.000337  0.000773  0.001462
     0.000037  0.001443  0.003109  0.000311 -0.003760 -0.006614 -0.000929
     NEW TRUST RADIUS =  0.10000
*REMARK   3 HET = Not identified; C 15 H 19 N 2 O    =    37 atoms res:    1
 PM7 CHARGE=+1 EF NOXYZ PRNT=2 PDBOUT COMPFG GRAPHF
 854026

  O(HETATM    1  O   HET A   1)  -0.02274759 +1   -0.0128872 +1    0.0128166 +1
  N(HETATM    2  N1  HET A   1)   6.20889358 +1   -0.0410585 +1    0.7481459 +1     1     0     0
  N(HETATM    3  N2  HET A   1)   2.25325244 +1   41.2080702 +1    0.5156590 +1     1     2     0
  C(HETATM    4  C1  HET A   1)   1.56598877 +1   56.8391426 +1  -20.4749572 +1     2     1     3
  C(HETATM    5  C2  HET A   1)   2.28752826 +1  145.7863365 +1  120.3623242 +1     4     2     1
  C(HETATM    6  C3  HET A   1)   1.44676219 +1   39.9745945 +1    0.7398940 +1     5     4     2
  C(HETATM    7  C4  HET A   1)   1.54942691 +1  100.6453736 +1 -117.3233549 +1     4     2     1
  C(HETATM    8  C5  HET A   1)   1.48990557 +1  104.5379680 +1    0.7138510 +1     4     2     1
  C(HETATM    9  C6  HET A   1)   1.53883624 +1   94.1995999 +1 -123.2378090 +1     5     4     2
  C(HETATM   10  C7  HET A   1)   1.38687398 +1  117.5156884 +1  152.7555164 +1     8     4     2
  C(HETATM   11  C8  HET A   1)   1.49472316 +1  110.4024998 +1 -154.4813310 +1     7     4     2
  C(HETATM   12  C9  HET A   1)   1.32206800 +1  120.6143299 +1    0.3353299 +1    11     7     4
  C(HETATM   13  C10 HET A   1)   1.32630008 +1  126.3523006 +1 -179.9260963 +1     6     5     4
  C(HETATM   14  C11 HET A   1)   1.41519116 +1  124.3155473 +1  -34.6290799 +1     8     4     2
  C(HETATM   15  C12 HET A   1)   1.48150291 +1  115.7796427 +1  179.3811756 +1    11     7     4
  C(HETATM   16  C13 HET A   1)   1.34158916 +1  121.3506232 +1 -176.7689109 +1    14     8     4
  C(HETATM   17  C14 HET A   1)   1.19526881 +1    8.4551642 +1   30.1637093 +1     1     2     3
  C(HETATM   18  C15 HET A   1)   1.47747207 +1  126.7648850 +1    0.0006760 +1    13     6     5
  H(HETATM   19 1H2  HET A   1)   1.13242735 +1  162.5817865 +1   -7.0674262 +1     5     4     2
  H(HETATM   20 1H4  HET A   1)   1.10241919 +1  110.8147214 +1   88.4938965 +1     7     4     2
  H(HETATM   21 2H4  HET A   1)   1.09994688 +1  113.6446040 +1  -31.9678758 +1     7     4     2
  H(HETATM   22 1H6  HET A   1)   1.10286067 +1  110.9637024 +1 -123.6707850 +1     9     5     4
  H(HETATM   23 2H6  HET A   1)   1.10347017 +1  110.9780863 +1  117.1767472 +1     9     5     4
  H(HETATM   24  H9  HET A   1)   1.08468958 +1  120.4006316 +1  178.6770799 +1    12    11     7
  H(HETATM   25 1H1  HET A   1)   1.03856618 +1   80.8029367 +1 -134.9084521 +1     2     1     3
  H(HETATM   26 2H1  HET A   1)   1.03031442 +1   70.6993115 +1  113.0128896 +1     2     1     3
  H(HETATM   27  H10 HET A   1)   1.08616724 +1  121.1108181 +1 -179.8544960 +1    13     6     5
  H(HETATM   28  H11 HET A   1)   1.08300716 +1  122.6571308 +1    1.1012977 +1    14     8     4
  H(HETATM   29 2H2  HET A   1)   1.01453366 +1   90.2474658 +1 -170.5815541 +1     3     1     2
  H(HETATM   30 1H12 HET A   1)   1.09317109 +1  110.6956291 +1   62.4207855 +1    15    11     7
  H(HETATM   31 2H12 HET A   1)   1.09235664 +1  111.1183959 +1  -57.5668634 +1    15    11     7
  H(HETATM   32 3H12 HET A   1)   1.09314147 +1  111.7179520 +1 -177.6350551 +1    15    11     7
  H(HETATM   33  H13 HET A   1)   1.08340370 +1  122.2486912 +1 -178.2852614 +1    16    14     8
  H(HETATM   34 1H15 HET A   1)   1.09440908 +1  110.2672217 +1  120.9480550 +1    18    13     6
  H(HETATM   35 2H15 HET A   1)   1.09038457 +1  113.2671726 +1    0.2424975 +1    18    13     6
  H(HETATM   36 3H15 HET A   1)   1.09434349 +1  110.3522344 +1 -120.3034437 +1    18    13     6
  H(HETATM   37 3H1  HET A   1)   1.02482706 +1  171.1213063 +1   30.6084603 +1     2     1     3

 XPARAM 
  1  1   -0.0227  1  2   -0.0129  1  3    0.0128  2  1    6.2089  2  2   -0.0007
  2  3    0.0131  3  1    2.2533  3  2    0.7192  3  3    0.0090  4  1    1.5660
  4  2    0.9920  4  3    5.9258  5  1    2.2875  5  2    2.5445  5  3    2.1007
  6  1    1.4468  6  2    0.6977  6  3    0.0129  7  1    1.5494  7  2    1.7566
  7  3    4.2355  8  1    1.4899  8  2    1.8245  8  3    0.0125  9  1    1.5388
  9  2    1.6441  9  3    4.1323 10  1    1.3869 10  2    2.0510 10  3    2.6661
 11  1    1.4947 11  2    1.9269 11  3    3.5870 12  1    1.3221 12  2    2.1051
 12  3    0.0059 13  1    1.3263 13  2    2.2053 13  3    3.1429 14  1    1.4152
 14  2    2.1697 14  3    5.6788 15  1    1.4815 15  2    2.0207 15  3    3.1308
 16  1    1.3416 16  2    2.1180 16  3    3.1980 17  1    1.1953 17  2    0.1476
 17  3    0.5265 18  1    1.4775 18  2    2.2125 18  3    6.2832 19  1    1.1324
 19  2    2.8376 19  3    6.1598 20  1    1.1024 20  2    1.9341 20  3    1.5445
 21  1    1.0999 21  2    1.9835 21  3    5.7252 22  1    1.1029 22  2    1.9367
 22  3    4.1247 23  1    1.1035 23  2    1.9369 23  3    2.0451 24  1    1.0847
 24  2    2.1014 24  3    3.1185 25  1    1.0386 25  2    1.4103 25  3    3.9286
 26  1    1.0303 26  2    1.2339 26  3    1.9724 27  1    1.0862 27  2    2.1138
 27  3    3.1441 28  1    1.0830 28  2    2.1408 28  3    0.0192 29  1    1.0145
 29  2    1.5751 29  3    3.3060 30  1    1.0932 30  2    1.9320 30  3    1.0894
 31  1    1.0924 31  2    1.9394 31  3    5.2785 32  1    1.0931 32  2    1.9498
 32  3    3.1829 33  1    1.0834 33  2    2.1336 33  3    3.1715 34  1    1.0944
 34  2    1.9245 34  3    2.1109 35  1    1.0904 35  2    1.9769 35  3    0.0042
 36  1    1.0943 36  2    1.9260 36  3    4.1835 37  1    1.0248 37  2    2.9866
 37  3    0.5342
 grad
      -0.00000    0.00000   -0.00000  -70.87521    0.00000    0.00000   42.84980  -99.58102
       0.00000    6.90004 -153.24529    0.52981  -76.64876   -2.75706 -111.98046   -9.40987
      14.51952   -2.39066   42.77516 -110.91212   47.15369   43.15828   45.29877   47.87331
      -0.42758  -42.20553   -8.68472   43.05412   25.87648   -8.20955    7.55223  110.02172
     -19.97548  -46.65324   49.34984   -9.72494  -15.90960   -6.18774   -0.06442  -17.57374
      24.63736   -2.58963  -10.61888    0.42176   -2.97883  -23.63690   -4.13162    1.28460
      -5.08693    9.72471   -2.32825   -9.58961    6.78018   -0.21663   -1.90335   30.37784
      -8.39185   -9.53424    3.96014    4.76764   -5.29301    1.65460    0.75008   -9.98161
       6.37925    5.16416  -12.62828    7.98497   -9.18973   -0.57483   -9.91491   -2.37232
      -2.42555   -7.17203    8.61068   -2.94646    1.25311    4.25917   -6.59498   -0.43834
       0.02898   -7.58334    7.85056   -1.30190  -10.63789    8.66009    1.78721   -6.18802
      -3.74270   -0.53528   -5.70582   -2.85968    0.45900   -6.08182   -3.61234    0.18817
      -7.22871   -2.72647    0.16296   -6.80303   -3.33189   -0.06646   -6.27411   -2.88580
       0.20516   -6.81874   -2.96955   -0.05470   -0.42669    9.10590    1.24502
 CYCLE:     6 TIME:   0.018 TIME LEFT:  2.00D  GRAD.:   328.921 HEAT:  152.5632

          HESSIAN HAS  0 NEGATIVE EIGENVALUE(S)
  MIN SEARCH, CORRECT HESSIAN, TRYING PURE NR STEP
 LAMBDA THAT MINIMIZES ALONG ALL MODES =        0.000000000
 PURE NR-STEP HAS LENGTH   0.29140
 LAMBDA THAT MINIMIZES ALONG ALL MODES =      -29.492640266
 P-RFO-STEP   HAS LENGTH   0.26046
 LAMBDA THAT MINIMIZES ALONG ALL MODES =     -550.591016056
 QA/TRIM-STEP HAS LENGTH   0.10000

  HEAT OF FORMATION        157.01657770507154    
 PARAMETERS       -0.033  -0.013   0.008   6.210   0.003   0.011   2.237   0.750
   0.006   1.568   1.019   5.933   2.314   2.519   2.120   1.461   0.668   0.005

   1.549   1.768   4.243   1.482   1.802   0.007   1.544   1.637   4.132   1.369

   2.049   2.665   1.494   1.943   3.594   1.330   2.115   0.010   1.323   2.216

   3.141   1.421   2.159   5.681   1.476   2.021   3.133   1.337   2.120   3.185

   1.199   0.154   0.527   1.470   2.204   6.282   1.139   2.798   6.169   1.108

   1.931   1.538   1.101   1.982   5.723   1.108   1.931   4.118   1.109   1.932

   2.052   1.085   2.106   3.121   1.038   1.418   3.915   1.029   1.232   1.965

   1.088   2.114   3.144   1.085   2.134   0.019   1.017   1.569   3.304   1.095

   1.936   1.090   1.094   1.942   5.277   1.095   1.953   3.182   1.086   2.134

   3.169   1.097   1.928   2.110   1.092   1.980   0.003   1.097   1.929   4.183

   1.022   2.977   0.532
 GRADIENT         -0.000   0.000  -0.000 105.392   0.000   0.000 -60.747 142.972
   0.000 -88.975  74.483 -11.505   0.779-216.398  -3.436  11.431 -35.255  -2.540

  66.423-157.751  75.172 -80.411-202.160 -80.276 -30.410 100.290   6.053 -80.001

 -10.246  -6.717  18.772 173.309 -32.199 -43.065  80.328 -16.072 -28.147   7.769

  -0.218  -4.717 -79.148   5.030 -15.457   0.775  -3.687 -43.970  39.073  -1.062

 -23.008  -0.945  -1.979 -16.230   4.572  -0.148   7.752  24.228  -9.549  -6.560

   3.570   4.208  -5.111   2.781  -0.526   0.648   0.074  -1.648   0.503   0.033

   0.963   2.996 -12.824  -2.246  -1.627  -5.367   5.320  -3.813   2.264   4.390

  -5.312  -3.706   0.351  -5.983   6.315  -0.143   3.159  -4.656   0.026  -5.391

  -3.599  -0.439  -5.145  -2.761   0.427  -5.371  -3.412   0.159  -3.968  -4.788

   0.093  -5.777  -3.415  -0.057  -5.543  -2.807   0.173  -5.816  -3.182  -0.013

  -4.015   5.727   1.060
       HoF         ACTUAL,  PREDICTED ENERGY CHANGE, RATIO
   157.0165777     4.4533762         -10.9555205   -0.4064961
 UNACCEPTABLE RATIO, REJECTING STEP, REDUCING DMAX TO 0.0500
  MIN SEARCH, CORRECT HESSIAN, TRYING PURE NR STEP
 LAMBDA THAT MINIMIZES ALONG ALL MODES =        0.000000000
 PURE NR-STEP HAS LENGTH   0.29140
 LAMBDA THAT MINIMIZES ALONG ALL MODES =      -29.492640266
 P-RFO-STEP   HAS LENGTH   0.26046
 LAMBDA THAT MINIMIZES ALONG ALL MODES =    -1627.927679251
 QA/TRIM-STEP HAS LENGTH   0.05000

  HEAT OF FORMATION        149.24250376667624    
 PARAMETERS       -0.028  -0.013   0.011   6.212   0.001   0.012   2.243   0.737
   0.008   1.566   1.009   5.928   2.302   2.533   2.113   1.452   0.685   0.010

   1.547   1.764   4.237   1.484   1.813   0.007   1.540   1.643   4.133   1.376

   2.049   2.666   1.495   1.930   3.590   1.327   2.108   0.008   1.326   2.209

   3.142   1.418   2.163   5.680   1.479   2.020   3.132   1.342   2.118   3.193

   1.197   0.150   0.526   1.475   2.207   6.283   1.135   2.820   6.164   1.105

   1.933   1.542   1.101   1.983   5.724   1.105   1.934   4.122   1.106   1.934

   2.048   1.085   2.103   3.120   1.038   1.414   3.923   1.030   1.233   1.969

   1.087   2.114   3.144   1.084   2.138   0.019   1.016   1.572   3.305   1.094

   1.934   1.090   1.093   1.940   5.278   1.094   1.951   3.183   1.085   2.134

   3.171   1.096   1.926   2.111   1.091   1.978   0.004   1.096   1.927   4.183

   1.023   2.982   0.533
 GRADIENT         -0.000   0.000  -0.000  52.138   0.000   0.000 -34.745  62.487
   0.000 -54.438  38.990  -9.216 -18.632-115.384 -18.470  -3.848  -2.415  -0.889

  38.910-105.556  45.840 -46.704 -93.550 -30.105 -25.414  56.746  -0.196 -41.946

  -8.900  -7.074   6.364 105.140 -23.265 -37.275  47.201 -11.988 -19.748  -1.555

  -0.048 -11.893 -34.207   1.073 -11.844   0.310  -3.364 -30.066  18.662   2.304

 -18.297  -0.740  -2.176 -11.833   5.422  -0.154   0.546  28.950  -8.552  -8.052

   3.340   4.385  -5.132   1.738   0.297  -3.834   2.141   1.237  -4.602   2.601

  -2.783  -0.211  -9.020  -2.582  -2.228  -6.390   7.203  -3.195   1.905   4.573

  -5.759  -1.722   0.141  -6.348   6.739  -0.503  -1.419  -0.246   0.664  -5.678

  -3.650  -0.498  -5.313  -2.808   0.441  -5.609  -3.479   0.172  -5.501  -3.174

   0.522  -6.181  -3.322  -0.074  -5.769  -2.848   0.192  -6.205  -3.040  -0.020

  -2.183   7.415   1.108
       HoF         ACTUAL,  PREDICTED ENERGY CHANGE, RATIO
   149.2425038    -3.3206978          -7.6299434    0.4352192
     STEPSIZE USED IS  0.05000
 CALCULATED STEP
    -0.005108  0.000275 -0.002149  0.003511  0.001607 -0.001166 -0.009816  0.017634
    -0.001353 -0.000354  0.016665  0.002265  0.014739 -0.011151  0.011954  0.005155
    -0.012544 -0.002986 -0.002265  0.007257  0.001014 -0.006077 -0.011971 -0.005268
     0.001407 -0.000754  0.000291 -0.010398 -0.002213 -0.000091 -0.000209  0.002723
     0.003460  0.004994  0.002835  0.001889 -0.000752  0.003951 -0.000697  0.002907
    -0.006642  0.001040 -0.002064 -0.000563  0.000848  0.000498  0.000466 -0.004672
     0.001892  0.002388 -0.000244 -0.002777 -0.004991 -0.000528  0.002482 -0.017441
     0.003800  0.002547 -0.001423 -0.002591  0.000755 -0.000867 -0.000754  0.002345
    -0.002630 -0.002708  0.002727 -0.002566  0.002984  0.000298  0.001879  0.001172
    -0.000240  0.003265 -0.005299 -0.000417 -0.000893 -0.002967  0.001031 -0.000064
    -0.000187  0.001315 -0.003201  0.000126  0.001509 -0.002948 -0.000977  0.001026
     0.001754  0.000060  0.000760  0.000921 -0.000488  0.000949  0.001470 -0.000342
     0.001504  0.000368 -0.000967  0.001278  0.001416 -0.000193  0.001037  0.001467
    -0.000342  0.001250  0.001035 -0.000212 -0.001410 -0.004153 -0.000722
     NEW TRUST RADIUS =  0.05000
*REMARK   3 HET = Not identified; C 15 H 19 N 2 O    =    37 atoms res:    1
 PM7 CHARGE=+1 EF NOXYZ PRNT=2 PDBOUT COMPFG GRAPHF
 854026

  O(HETATM    1  O   HET A   1)  -0.02785594 +1   -0.0126127 +1    0.0106678 +1
  N(HETATM    2  N1  HET A   1)   6.21240431 +1    0.0510054 +1    0.6813259 +1     1     0     0
  N(HETATM    3  N2  HET A   1)   2.24343604 +1   42.2184301 +1    0.4381307 +1     1     2     0
  C(HETATM    4  C1  HET A   1)   1.56563474 +1   57.7939674 +1  -20.3452017 +1     2     1     3
  C(HETATM    5  C2  HET A   1)   2.30226691 +1  145.1474104 +1  121.0472398 +1     4     2     1
  C(HETATM    6  C3  HET A   1)   1.45191722 +1   39.2558761 +1    0.5687955 +1     5     4     2
  C(HETATM    7  C4  HET A   1)   1.54716174 +1  101.0611545 +1 -117.2652698 +1     4     2     1
  C(HETATM    8  C5  HET A   1)   1.48382835 +1  103.8521047 +1    0.4119928 +1     4     2     1
  C(HETATM    9  C6  HET A   1)   1.54024360 +1   94.1564128 +1 -123.2211325 +1     5     4     2
  C(HETATM   10  C7  HET A   1)   1.37647635 +1  117.3888920 +1  152.7502801 +1     8     4     2
  C(HETATM   11  C8  HET A   1)   1.49451410 +1  110.5585167 +1 -154.2830873 +1     7     4     2
  C(HETATM   12  C9  HET A   1)   1.32706231 +1  120.7767882 +1    0.4435605 +1    11     7     4
  C(HETATM   13  C10 HET A   1)   1.32554797 +1  126.5786637 +1 -179.9660218 +1     6     5     4
  C(HETATM   14  C11 HET A   1)   1.41809851 +1  123.9349670 +1  -34.5694944 +1     8     4     2
  C(HETATM   15  C12 HET A   1)   1.47943866 +1  115.7473865 +1  179.4297600 +1    11     7     4
  C(HETATM   16  C13 HET A   1)   1.34208667 +1  121.3773174 +1 -177.0365838 +1    14     8     4
[...]
  H(HETATM   26 2H1  HET A   1)   1.03466574 +1   71.0142654 +1   96.9379132 +1     2     1     3
  H(HETATM   27  H10 HET A   1)   1.09112193 +1  122.7923647 +1 -179.4338727 +1    13     6     5
  H(HETATM   28  H11 HET A   1)   1.09136002 +1  119.2645023 +1   -2.2511244 +1    14     8     4
  H(HETATM   29 2H2  HET A   1)   1.02474080 +1   87.7127779 +1 -164.4157685 +1     3     1     2
  H(HETATM   30 1H12 HET A   1)   1.10328268 +1  111.1300094 +1   78.2594711 +1    15    11     7
  H(HETATM   31 2H12 HET A   1)   1.09997651 +1  112.6762766 +1  -42.0631473 +1    15    11     7
  H(HETATM   32 3H12 HET A   1)   1.10257644 +1  112.6131399 +1 -162.4838610 +1    15    11     7
  H(HETATM   33  H13 HET A   1)   1.09302884 +1  123.1385565 +1 -179.8680597 +1    16    14     8
  H(HETATM   34 1H15 HET A   1)   1.10377478 +1  111.5753960 +1  130.7202747 +1    18    13     6
  H(HETATM   35 2H15 HET A   1)   1.09946192 +1  114.4219778 +1    9.7755613 +1    18    13     6
  H(HETATM   36 3H15 HET A   1)   1.10536242 +1  110.9734169 +1 -110.7106958 +1    18    13     6
  H(HETATM   37 3H1  HET A   1)   1.02974331 +1  168.0560899 +1    3.2573279 +1     2     1     3

 XPARAM 
  1  1   -0.2789  1  2   -0.0969  1  3   -0.3432  2  1    6.1781  2  2    0.1035
  2  3    0.0309  3  1    2.2455  3  2    0.7160  3  3    0.0868  4  1    1.5674
  4  2    1.0283  4  3    5.7504  5  1    2.4407  5  2    2.5279  5  3    1.9475
  6  1    1.5046  6  2    0.6287  6  3    0.2312  7  1    1.5399  7  2    1.8855
  7  3    4.1459  8  1    1.4916  8  2    1.8550  8  3   -0.0300  9  1    1.5439
  9  2    1.6226  9  3    4.5054 10  1    1.3907 10  2    2.0943 10  3    2.3948
 11  1    1.5090 11  2    1.9060 11  3    3.2903 12  1    1.3388 12  2    2.1333
 12  3    0.3303 13  1    1.3363 13  2    2.1809 13  3    3.1235 14  1    1.4291
 14  2    2.1125 14  3    5.4297 15  1    1.4859 15  2    2.0072 15  3    3.4745
 16  1    1.3535 16  2    2.1155 16  3    3.1283 17  1    1.2036 17  2    0.2216
 17  3    0.9954 18  1    1.4842 18  2    2.1798 18  3    6.2889 19  1    1.1238
 19  2    2.5507 19  3    6.7986 20  1    1.1106 20  2    1.9399 20  3    1.1817
 21  1    1.1107 21  2    1.9531 21  3    5.3819 22  1    1.1143 22  2    1.9068
 22  3    3.8526 23  1    1.1146 23  2    1.9121 23  3    1.8415 24  1    1.0900
 24  2    2.1240 24  3    3.1378 25  1    1.0312 25  2    1.4284 25  3    3.6595
 26  1    1.0347 26  2    1.2394 26  3    1.6919 27  1    1.0911 27  2    2.1431
 27  3    3.1515 28  1    1.0914 28  2    2.0816 28  3   -0.0393 29  1    1.0247
 29  2    1.5309 29  3    3.4136 30  1    1.1033 30  2    1.9396 30  3    1.3659
 31  1    1.1000 31  2    1.9666 31  3    5.5490 32  1    1.1026 32  2    1.9655
 32  3    3.4473 33  1    1.0930 33  2    2.1492 33  3    3.1439 34  1    1.1038
 34  2    1.9474 34  3    2.2815 35  1    1.0995 35  2    1.9970 35  3    0.1706
 36  1    1.1054 36  2    1.9369 36  3    4.3509 37  1    1.0297 37  2    2.9331
 37  3    0.0569
 grad
       0.00000    0.00000   -0.00000   -0.06892    0.00000    0.00000   -0.07064   -0.04209
       0.00000   -0.11606   -0.24884   -0.04384   -0.24536    0.44272    0.02874   -0.03381
       0.00682   -0.00630   -0.18587    0.23468   -0.10474   -0.12743    0.33878    0.17435
       0.05103   -0.16342   -0.07328    0.02554   -0.09403   -0.05675   -0.08866   -0.22626
       0.02863    0.04420   -0.13598   -0.01439    0.01633    0.08305   -0.10471   -0.06502
      -0.06825   -0.07174   -0.05962    0.07752    0.03724   -0.12011    0.03546   -0.03263
       0.13419    0.08307   -0.00874   -0.03387   -0.01595    0.00948   -0.01449   -0.02648
      -0.00573   -0.00412   -0.04050   -0.01452   -0.00733    0.04846    0.00222   -0.03141
       0.06612   -0.03977   -0.01739   -0.03561   -0.06308   -0.00704   -0.00412    0.04120
       0.02536    0.07606   -0.00854   -0.02771    0.05783    0.00760   -0.02331    0.02419
       0.04212   -0.02518   -0.00050   -0.01697   -0.00329   -0.07901   -0.01652   -0.00703
      -0.01642    0.06547   -0.01331    0.00008    0.07179   -0.01816    0.02320    0.06202
      -0.01439   -0.02300   -0.01872   -0.00704   -0.01840   -0.04846   -0.02131    0.01523
      -0.04761   -0.01960    0.00755   -0.05422   -0.00057    0.02425    0.07395
 CYCLE:    72 TIME:   0.017 TIME LEFT:  2.00D  GRAD.:     0.946 HEAT:  130.3692

     GRADIENT =  0.94589 IS LESS THAN CUTOFF =  1.00000



  HEAT OF FORMATION        130.36917759764037    

 -------------------------------------------------------------------------------
 PM7 CHARGE=+1 EF NOXYZ PRNT=2 PDBOUT COMPFG GRAPHF
 854026



     GEOMETRY OPTIMISED USING EIGENVECTOR FOLLOWING (EF).     
     SCF FIELD WAS ACHIEVED                                   


                              PM7 CALCULATION
                                                       MOPAC v22.0.6 Linux
                                                       Mon Oct  6 00:09:05 2025




          FINAL HEAT OF FORMATION =        130.36918 KCAL/MOL =     545.46464 KJ/MOL


          COSMO AREA              =        263.80 SQUARE ANGSTROMS
          COSMO VOLUME            =        301.30 CUBIC ANGSTROMS

          GRADIENT NORM           =          0.94589          =       0.15550 PER ATOM
          IONIZATION POTENTIAL    =         12.286148 EV
          HOMO LUMO ENERGIES (EV) =        -12.286 -3.666
          NO. OF FILLED LEVELS    =         47
          MOLECULAR WEIGHT        =        243.3279         POINT GROUP:  C1  

          MOLECULAR DIMENSIONS (Angstroms)

            Atom       Atom       Distance
            H    36    O     1     9.16638
            H    31    H    34     7.12387
            H    25    H    22     5.73483


          SCF CALCULATIONS        =         86

          WALL-CLOCK TIME         =      1.419 SECONDS
          COMPUTATION TIME        =      1.229 SECONDS




  ATOM               CHEMICAL                 BOND LENGTH      BOND ANGLE     TWIST ANGLE 
 NUMBER               SYMBOL                  (ANGSTROMS)      (DEGREES)       (DEGREES) 
   (I)                                           NA:I           NB:NA:I       NC:NB:NA:I       NA    NB    NC 
     1       O(HETATM    1  O   HET A   1)   -0.27885585  *   -0.0969451  *   -0.3431670  *
     2       N(HETATM    2  N1  HET A   1)    6.17812192  *    5.9292996  *    1.7710030  *     1     0     0
     3       N(HETATM    3  N2  HET A   1)    2.24553511  *   41.0262742  *    4.9712799  *     1     2     0
     4       C(HETATM    4  C1  HET A   1)    1.56735229  *   58.9149816  *  -30.5272770  *     2     1     3
     5       C(HETATM    5  C2  HET A   1)    2.44070971  *  144.8397942  *  111.5852632  *     4     2     1
     6       C(HETATM    6  C3  HET A   1)    1.50456076  *   36.0240921  *   13.2487000  *     5     4     2
     7       C(HETATM    7  C4  HET A   1)    1.53990188  *  108.0287798  * -122.4596530  *     4     2     1
     8       C(HETATM    8  C5  HET A   1)    1.49158263  *  106.2825334  *   -1.7161827  *     4     2     1
     9       C(HETATM    9  C6  HET A   1)    1.54388165  *   92.9661822  * -101.8589351  *     5     4     2
    10       C(HETATM   10  C7  HET A   1)    1.39065932  *  119.9951545  *  137.2093910  *     8     4     2
    11       C(HETATM   11  C8  HET A   1)    1.50896527  *  109.2079832  * -171.4779824  *     7     4     2
    12       C(HETATM   12  C9  HET A   1)    1.33875704  *  122.2313443  *   18.9269784  *    11     7     4
    13       C(HETATM   13  C10 HET A   1)    1.33632198  *  124.9551637  *  178.9608385  *     6     5     4
    14       C(HETATM   14  C11 HET A   1)    1.42906180  *  121.0347636  *  -48.9024482  *     8     4     2
    15       C(HETATM   15  C12 HET A   1)    1.48588462  *  115.0012912  * -160.9279141  *    11     7     4
    16       C(HETATM   16  C13 HET A   1)    1.35349029  *  121.2067212  *  179.2357520  *    14     8     4
    17       C(HETATM   17  C14 HET A   1)    1.20360917  *   12.6976871  *   57.0303055  *     1     2     3
    18       C(HETATM   18  C15 HET A   1)    1.48424664  *  124.8942413  *    0.3287068  *    13     6     5
    19       H(HETATM   19 1H2  HET A   1)    1.12377164  *  146.1461422  *   29.5306177  *     5     4     2
    20       H(HETATM   20 1H4  HET A   1)    1.11058080  *  111.1469783  *   67.7082750  *     7     4     2
    21       H(HETATM   21 2H4  HET A   1)    1.11072072  *  111.9030726  *  -51.6384304  *     7     4     2
    22       H(HETATM   22 1H6  HET A   1)    1.11429263  *  109.2524503  * -139.2614446  *     9     5     4
    23       H(HETATM   23 2H6  HET A   1)    1.11459998  *  109.5539482  *  105.5117784  *     9     5     4
    24       H(HETATM   24  H9  HET A   1)    1.09001871  *  121.6980708  *  179.7818677  *    12    11     7
    25       H(HETATM   25 1H1  HET A   1)    1.03116946  *   81.8429730  * -150.3232982  *     2     1     3
    26       H(HETATM   26 2H1  HET A   1)    1.03466574  *   71.0142654  *   96.9379132  *     2     1     3
    27       H(HETATM   27  H10 HET A   1)    1.09112193  *  122.7923647  * -179.4338727  *    13     6     5
    28       H(HETATM   28  H11 HET A   1)    1.09136002  *  119.2645023  *   -2.2511244  *    14     8     4
    29       H(HETATM   29 2H2  HET A   1)    1.02474080  *   87.7127779  * -164.4157685  *     3     1     2
    30       H(HETATM   30 1H12 HET A   1)    1.10328268  *  111.1300094  *   78.2594711  *    15    11     7
    31       H(HETATM   31 2H12 HET A   1)    1.09997651  *  112.6762766  *  -42.0631473  *    15    11     7
    32       H(HETATM   32 3H12 HET A   1)    1.10257644  *  112.6131399  * -162.4838610  *    15    11     7
    33       H(HETATM   33  H13 HET A   1)    1.09302884  *  123.1385565  * -179.8680597  *    16    14     8
    34       H(HETATM   34 1H15 HET A   1)    1.10377478  *  111.5753960  *  130.7202747  *    18    13     6
    35       H(HETATM   35 2H15 HET A   1)    1.09946192  *  114.4219778  *    9.7755613  *    18    13     6
    36       H(HETATM   36 3H15 HET A   1)    1.10536242  *  110.9734169  * -110.7106958  *    18    13     6
    37       H(HETATM   37 3H1  HET A   1)    1.02974331  *  168.0560899  *    3.2573279  *     2     1     3

                             CARTESIAN COORDINATES

   1    O       -0.278855848    -0.096945052    -0.343166997
   2    N        5.899266072    -0.096945052    -0.343166997
   3    N        1.415195267     1.377035533    -0.343166997
   4    C        5.090027328     1.059281364    -1.024978054
   5    C        4.502608185     3.425095410    -0.902803880
   6    C        5.434910079     2.373472749    -0.365583212
   7    C        5.517000843     1.132796698    -2.502674548
   8    C        3.648496886     0.709528255    -0.868512430
   9    C        3.105955326     3.130354482    -0.314535974
  10    C        2.729707841     1.690800122    -0.512330512
  11    C        4.914897305     2.364666603    -3.132709506
  12    C        4.463515291     3.392054385    -2.402641682
  13    C        6.407205077     2.594553616     0.524092076
  14    C        3.165855666    -0.593172570    -1.203543238
  15    C        4.859197456     2.347330370    -4.617448573
  16    C        1.861359629    -0.919041879    -1.048510198
  17    C        0.895317158     0.047028094    -0.565123131
  18    C        6.719314551     3.912690009     1.130798122
  19    H        4.825972722     4.451453346    -0.578940531
  20    H        5.184348648     0.232308706    -3.061113083
  21    H        6.620785903     1.189865641    -2.612684501
  22    H        2.358373185     3.809837984    -0.784718032
  23    H        3.097931784     3.381598041     0.771348646
  24    H        4.033286395     4.279382120    -2.867069679
  25    H        5.752957003    -0.983794989    -0.848539436
  26    H        5.562655442    -0.215127162     0.628048458
  27    H        7.069906988     1.805751007     0.883485579
  28    H        3.858791306    -1.329519876    -1.614273742
  29    H        0.736942626     2.094250195    -0.068084855
  30    H        4.020512556     1.727063915    -4.976767145
  31    H        5.777547845     1.946943988    -5.071619949
  32    H        4.710308773     3.351447145    -5.047862878
  33    H        1.458831416    -1.905530907    -1.292482502
  34    H        6.803813064     3.844151121     2.229197494
  35    H        5.975931700     4.695853215     0.923786403
  36    H        7.689111649     4.296878890     0.765122632
  37    H        6.906716130     0.115820180    -0.331058012


           Empirical Formula: C15 H19 N2 O  =    37 atoms



      MOLECULAR POINT GROUP   :   C1  


                  EIGENVALUES  
 -43.37525 -40.75819 -34.97969 -33.81994 -32.40816 -31.84715 -31.09157 -30.15356
 -28.68637 -27.48120 -27.16525 -26.15124 -25.70606 -24.88331 -23.72608 -23.38420
 -23.04551 -22.52001 -21.55208 -20.71895 -20.29228 -20.06548 -19.53374 -19.39137
 -19.17316 -18.96176 -18.46160 -18.32263 -17.83631 -17.64495 -17.56387 -17.41787
 -17.12397 -16.92428 -16.67123 -16.55950 -16.33028 -16.03303 -15.81202 -15.47566
 -15.24997 -14.98343 -14.59832 -13.69520 -13.56935 -12.87328 -12.28615  -3.66574
  -3.43242  -3.09549  -2.81580  -2.28208  -1.53288  -1.27495  -1.06556  -0.87326
  -0.65542  -0.42847  -0.17023   0.02063   0.11147   0.22559   0.34884   0.50519
   0.59736   0.68226   1.01832   1.09132   1.25577   1.45178   1.48470   1.60108
   1.64047   1.77566   1.85623   1.92733   1.95741   2.17994   2.23697   2.28557
   2.39670   2.43832   2.50457   2.68228   2.73958   2.89295   2.96157   3.02257
   3.19794   3.60396   3.93214


              NET ATOMIC CHARGES AND DIPOLE CONTRIBUTIONS

  ATOM NO.                 TYPE                        CHARGE      No. of ELECS.   s-Pop       p-Pop       
    1          O(HETATM    1  O   HET A   1)          -0.407782        6.4078     1.88106     4.52673
    2          N(HETATM    2  N1  HET A   1)          -0.284737        5.2847     1.50623     3.77851
    3          N(HETATM    3  N2  HET A   1)          -0.497306        5.4973     1.56599     3.93132
    4          C(HETATM    4  C1  HET A   1)           0.224207        3.7758     1.08609     2.68970
    5          C(HETATM    5  C2  HET A   1)          -0.072680        4.0727     1.05341     3.01927
    6          C(HETATM    6  C3  HET A   1)          -0.138299        4.1383     1.07826     3.06004
    7          C(HETATM    7  C4  HET A   1)          -0.338311        4.3383     1.07062     3.26769
    8          C(HETATM    8  C5  HET A   1)          -0.382082        4.3821     1.03753     3.34455
    9          C(HETATM    9  C6  HET A   1)          -0.332580        4.3326     1.06772     3.26486
   10          C(HETATM   10  C7  HET A   1)           0.345162        3.6548     1.08023     2.57460
   11          C(HETATM   11  C8  HET A   1)           0.067571        3.9324     1.07207     2.86036
   12          C(HETATM   12  C9  HET A   1)          -0.238714        4.2387     1.08778     3.15094
   13          C(HETATM   13  C10 HET A   1)          -0.102854        4.1029     1.08584     3.01702
   14          C(HETATM   14  C11 HET A   1)          -0.029032        4.0290     1.07979     2.94924
   15          C(HETATM   15  C12 HET A   1)          -0.460343        4.4603     1.04955     3.41079
   16          C(HETATM   16  C13 HET A   1)          -0.307397        4.3074     1.08725     3.22015
   17          C(HETATM   17  C14 HET A   1)           0.569593        3.4304     1.08664     2.34377
   18          C(HETATM   18  C15 HET A   1)          -0.443367        4.4434     1.04685     3.39652
   19          H(HETATM   19 1H2  HET A   1)           0.176687        0.8233     0.82331
   20          H(HETATM   20 1H4  HET A   1)           0.174775        0.8252     0.82522
   21          H(HETATM   21 2H4  HET A   1)           0.169526        0.8305     0.83047
   22          H(HETATM   22 1H6  HET A   1)           0.190926        0.8091     0.80907
   23          H(HETATM   23 2H6  HET A   1)           0.187900        0.8121     0.81210
   24          H(HETATM   24  H9  HET A   1)           0.177341        0.8227     0.82266
   25          H(HETATM   25 1H1  HET A   1)           0.295677        0.7043     0.70432
   26          H(HETATM   26 2H1  HET A   1)           0.304459        0.6955     0.69554
   27          H(HETATM   27  H10 HET A   1)           0.128964        0.8710     0.87104
   28          H(HETATM   28  H11 HET A   1)           0.138968        0.8610     0.86103
   29          H(HETATM   29 2H2  HET A   1)           0.338510        0.6615     0.66149
   30          H(HETATM   30 1H12 HET A   1)           0.175339        0.8247     0.82466
   31          H(HETATM   31 2H12 HET A   1)           0.167582        0.8324     0.83242
   32          H(HETATM   32 3H12 HET A   1)           0.178693        0.8213     0.82131
   33          H(HETATM   33  H13 HET A   1)           0.207287        0.7927     0.79271
   34          H(HETATM   34 1H15 HET A   1)           0.177096        0.8229     0.82290
   35          H(HETATM   35 2H15 HET A   1)           0.165788        0.8342     0.83421
   36          H(HETATM   36 3H15 HET A   1)           0.181471        0.8185     0.81853
   37          H(HETATM   37 3H1  HET A   1)           0.291963        0.7080     0.70804
 DIPOLE           X         Y         Z       TOTAL
 POINT-CHG.     9.191    -1.699     1.516     9.469
 HYBRID         0.090    -0.370     0.509     0.636
 SUM            9.281    -2.069     2.025     9.722


          ATOMIC ORBITAL ELECTRON POPULATIONS

                   Atom                  s        px        py        pz   
   O(HETATM    1  O   HET A   1)   1.88106   1.23115   1.79744   1.49813
   N(HETATM    2  N1  HET A   1)   1.50623   1.25047   1.26202   1.26601
   N(HETATM    3  N2  HET A   1)   1.56599   1.14278   1.24245   1.54608
   C(HETATM    4  C1  HET A   1)   1.08609   0.91497   0.82436   0.95037
   C(HETATM    5  C2  HET A   1)   1.05341   0.94704   1.07306   0.99917
   C(HETATM    6  C3  HET A   1)   1.07826   1.04296   0.98069   1.03638
   C(HETATM    7  C4  HET A   1)   1.07062   1.14897   1.13078   0.98794
   C(HETATM    8  C5  HET A   1)   1.03753   0.97210   1.03366   1.33879
   C(HETATM    9  C6  HET A   1)   1.06772   1.08397   1.01086   1.17003
   C(HETATM   10  C7  HET A   1)   1.08023   0.82426   0.95353   0.79682
   C(HETATM   11  C8  HET A   1)   1.07207   0.95630   0.92943   0.97463
   C(HETATM   12  C9  HET A   1)   1.08778   1.08768   1.07869   0.98457
   C(HETATM   13  C10 HET A   1)   1.08584   0.98526   1.05814   0.97361
   C(HETATM   14  C11 HET A   1)   1.07979   1.03062   0.98717   0.93146
   C(HETATM   15  C12 HET A   1)   1.04955   1.19020   1.20898   1.01162
   C(HETATM   16  C13 HET A   1)   1.08725   0.99479   1.10716   1.11820
   C(HETATM   17  C14 HET A   1)   1.08664   0.83171   0.76757   0.74449
   C(HETATM   18  C15 HET A   1)   1.04685   1.19074   1.04388   1.16190
   H(HETATM   19 1H2  HET A   1)   0.82331
   H(HETATM   20 1H4  HET A   1)   0.82522
   H(HETATM   21 2H4  HET A   1)   0.83047
   H(HETATM   22 1H6  HET A   1)   0.80907
   H(HETATM   23 2H6  HET A   1)   0.81210
   H(HETATM   24  H9  HET A   1)   0.82266
   H(HETATM   25 1H1  HET A   1)   0.70432
   H(HETATM   26 2H1  HET A   1)   0.69554
   H(HETATM   27  H10 HET A   1)   0.87104
   H(HETATM   28  H11 HET A   1)   0.86103
   H(HETATM   29 2H2  HET A   1)   0.66149
   H(HETATM   30 1H12 HET A   1)   0.82466
   H(HETATM   31 2H12 HET A   1)   0.83242
   H(HETATM   32 3H12 HET A   1)   0.82131
   H(HETATM   33  H13 HET A   1)   0.79271
   H(HETATM   34 1H15 HET A   1)   0.82290
   H(HETATM   35 2H15 HET A   1)   0.83421
   H(HETATM   36 3H15 HET A   1)   0.81853
   H(HETATM   37 3H1  HET A   1)   0.70804

           DATA FOR GRAPH WRITTEN TO DISK

 **********************
 *                    *
 * JOB ENDED NORMALLY *
 *                    *
 **********************



 TOTAL JOB TIME:             1.43 SECONDS

 == MOPAC DONE ==
