 *******************************************************************************
 **                                                                           **
 **                              MOPAC v22.0.6                                **
 **                                                                           **
 *******************************************************************************
 **          Digital Object Identifier (DOI): 10.5281/zenodo.6511958          **
 **    Visit the DOI location for information on how to cite this program.    **
 *******************************************************************************

                              PM7 CALCULATION RESULTS

 *******************************************************************************
 *  CALCULATION DONE:                                Mon Oct  6 01:53:25 2025  *
 *  PM7        - The PM7 Hamiltonian to be used
 *  PDBOUT     - PRINT GEOMETRY IN PDB FORMAT
 *  RESIDUES   - DETERMINE THE SEQUENCE OF RESIDUES
 *
 *
 *
 *                 CHARGE ON SYSTEM = 0
 *
 *
 *
 *  EF         - USE EF ROUTINE FOR MINIMUM SEARCH
 *  T=         - A TIME OF 172800.0 SECONDS REQUESTED
 *  DUMP=N     - RESTART FILE WRITTEN EVERY 7200.0 SECONDS REQUESTED
 *  NOXYZ      - CARTESIAN COORDINATES NOT TO BE PRINTED
 *  PRNT       - EXTRA PRINTING IN EF ROUTINE
 *  GRAPH      - GENERATE FILE FOR GRAPHICS
 *  COMPFG     - PRINT HEAT OF FORMATION CALC'D IN COMPFG
 *******************************************************************************
PM7 CHARGE=0 EF NOXYZ PRNT=2 PDBOUT COMPFG GRAPHF
 65036

  ATOM    CHEMICAL      BOND LENGTH      BOND ANGLE     TWIST ANGLE 
 NUMBER    SYMBOL       (ANGSTROMS)      (DEGREES)       (DEGREES) 
   (I)                     NA:I           NB:NA:I       NC:NB:NA:I       NA    NB    NC 
     1       S          0.00000000  *    0.0000000  *    0.0000000  *     0     0     0
     2       S          2.13599100  *    0.0000000  *    0.0000000  *     1     0     0
     3       O          1.53662700  *   92.2745940  *    0.0000000  *     1     2     0
     4       C          1.82545600  *   94.2421760  *  -93.5257940  *     1     2     3
     5       C          1.81837000  *   93.1545410  * -101.5199410  *     2     1     3
     6       C          1.50135800  *  109.6499770  *  -82.0207630  *     4     1     2
     7       C          1.50090700  *  108.9410620  *  177.3127290  *     5     2     1
     8       C          1.33601300  *  121.9884830  *  121.3960790  *     6     4     1
     9       C          1.33643200  *  122.1394720  *  120.6532460  *     7     5     2
    10       H          1.11023500  *  108.7128890  *  159.7286470  *     4     1     2
    11       H          1.11281100  *  110.5485180  *   41.4865990  *     4     1     2
    12       H          1.11186600  *  109.3769790  *  -61.4232770  *     5     2     1
    13       H          1.11030800  *  109.6095120  *   59.6046200  *     5     2     1
    14       H          1.08600700  *  118.8646720  *  -58.7333440  *     6     4     1
    15       H          1.08622400  *  118.8084150  *  -59.4902940  *     7     5     2
    16       H          1.08509200  *  119.9521070  *  179.9157480  *     8     6     4
    17       H          1.08574600  *  121.2435840  *   -0.0854180  *     8     6     4
    18       H          1.08515800  *  119.9244990  *  179.9136990  *     9     7     5
    19       H          1.08563400  *  121.2892560  *   -0.0251300  *     9     7     5


 General Reference for PM7:
 "Optimization of Parameters for Semiempirical Methods VI: More Modifications to the 
 NDDO Approximations and Re-optimization of Parameters", J. J. P. Stewart, J. Mol. Mod., 1:32, 19 (2013)
 https://link.springer.com/article/10.1007/s00894-012-1667-x

           Empirical Formula: C6 H10 O S2  =    19 atoms



      MOLECULAR POINT GROUP   :   C1  


      RHF CALCULATION, NO. OF DOUBLY OCCUPIED LEVELS = 26


          Geometry optimization using EF

  HEAT OF FORMATION        20.981213245009712    
 PARAMETERS        0.000   0.000   0.000   2.136   0.000   0.000   1.537   1.610
   0.000   1.825   1.645   4.651   1.818   1.626   4.511   1.501   1.914   4.852

   1.501   1.901   3.095   1.336   2.129   2.119   1.336   2.132   2.106   1.110

   1.897   2.788   1.113   1.929   0.724   1.112   1.909   5.211   1.110   1.913

   1.040   1.086   2.075   5.258   1.086   2.074   5.245   1.085   2.094   3.140

   1.086   2.116   6.282   1.085   2.093   3.140   1.086   2.117   6.283
 GRADIENT         -0.000  -0.000  -0.000 -14.567   0.000   0.000  34.253 -41.673
   0.000 -17.086 -16.896  34.730 -16.696 -24.400  -0.887   9.798  -1.928  -1.828

   8.527   3.401  -1.280  -5.092   2.035  -0.237  -4.226   2.932   0.147   0.074

   0.143   7.276   2.466  -2.872  -6.479   2.846  -4.364  -2.480  -1.935  -2.474

   3.846  -1.999   8.019   1.351  -3.419   9.019   0.642   3.505 -10.379  -0.109

   3.689  -9.685   0.129   3.640 -10.174   0.161   5.074  -9.787   0.378

          DIAGONAL MATRIX USED AS START HESSIAN

*REMARK   3 IPH = Phenol res:    1
 PM7 CHARGE=0 EF NOXYZ PRNT=2 PDBOUT COMPFG GRAPHF
 65036

  S(HETATM    1  S1  IPH A   1)   0.00000000 +1    0.0000000 +1    0.0000000 +1
  S(HETATM    2  S2  IPH A   1)   2.13599100 +1    0.0000000 +1    0.0000000 +1     1     0     0
  O(HETATM    3  O   IPH A   1)   1.53662700 +1   92.2745940 +1    0.0000000 +1     1     2     0
  C(HETATM    4  C1  IPH A   1)   1.82545600 +1   94.2421760 +1  -93.5257940 +1     1     2     3
  C(HETATM    5  C2  IPH A   1)   1.81837000 +1   93.1545410 +1 -101.5199410 +1     2     1     3
  C(HETATM    6  C3  IPH A   1)   1.50135800 +1  109.6499770 +1  -82.0207630 +1     4     1     2
  C(HETATM    7  C4  IPH A   1)   1.50090700 +1  108.9410620 +1  177.3127290 +1     5     2     1
  C(HETATM    8  C5  IPH A   1)   1.33601300 +1  121.9884830 +1  121.3960790 +1     6     4     1
  C(HETATM    9  C6  IPH A   1)   1.33643200 +1  122.1394720 +1  120.6532460 +1     7     5     2
  H(HETATM   10 1H1  IPH A   1)   1.11023500 +1  108.7128890 +1  159.7286470 +1     4     1     2
  H(HETATM   11 2H1  IPH A   1)   1.11281100 +1  110.5485180 +1   41.4865990 +1     4     1     2
  H(HETATM   12 1H2  IPH A   1)   1.11186600 +1  109.3769790 +1  -61.4232770 +1     5     2     1
  H(HETATM   13 2H2  IPH A   1)   1.11030800 +1  109.6095120 +1   59.6046200 +1     5     2     1
  H(HETATM   14  H3  IPH A   1)   1.08600700 +1  118.8646720 +1  -58.7333440 +1     6     4     1
  H(HETATM   15  H4  IPH A   1)   1.08622400 +1  118.8084150 +1  -59.4902940 +1     7     5     2
  H(HETATM   16 1H5  IPH A   1)   1.08509200 +1  119.9521070 +1  179.9157480 +1     8     6     4
  H(HETATM   17 2H5  IPH A   1)   1.08574600 +1  121.2435840 +1   -0.0854180 +1     8     6     4
  H(HETATM   18 1H6  IPH A   1)   1.08515800 +1  119.9244990 +1  179.9136990 +1     9     7     5
  H(HETATM   19 2H6  IPH A   1)   1.08563400 +1  121.2892560 +1   -0.0251300 +1     9     7     5

 XPARAM 
  1  1    0.0000  1  2    0.0000  1  3    0.0000  2  1    2.1360  2  2    0.0000
  2  3    0.0000  3  1    1.5366  3  2    1.6105  3  3    0.0000  4  1    1.8255
  4  2    1.6448  4  3    4.6509  5  1    1.8184  5  2    1.6259  5  3    4.5113
  6  1    1.5014  6  2    1.9138  6  3    4.8517  7  1    1.5009  7  2    1.9014
  7  3    3.0947  8  1    1.3360  8  2    2.1291  8  3    2.1188  9  1    1.3364
  9  2    2.1317  9  3    2.1058 10  1    1.1102 10  2    1.8974 10  3    2.7878
 11  1    1.1128 11  2    1.9294 11  3    0.7241 12  1    1.1119 12  2    1.9090
 12  3    5.2111 13  1    1.1103 13  2    1.9130 13  3    1.0403 14  1    1.0860
 14  2    2.0746 14  3    5.2581 15  1    1.0862 15  2    2.0736 15  3    5.2449
 16  1    1.0851 16  2    2.0936 16  3    3.1401 17  1    1.0857 17  2    2.1161
 17  3    6.2817 18  1    1.0852 18  2    2.0931 18  3    3.1401 19  1    1.0856
 19  2    2.1169 19  3    6.2827
 grad
      -0.00000   -0.00000   -0.00000  -14.56661    0.00000    0.00000   34.25270  -41.67263
       0.00000  -17.08613  -16.89555   34.73019  -16.69650  -24.39996   -0.88660    9.79751
      -1.92755   -1.82837    8.52663    3.40066   -1.28039   -5.09163    2.03461   -0.23701
      -4.22571    2.93194    0.14683    0.07443    0.14256    7.27647    2.46607   -2.87225
      -6.47934    2.84610   -4.36418   -2.47988   -1.93517   -2.47437    3.84647   -1.99906
       8.01925    1.35116   -3.41894    9.01917    0.64213    3.50536  -10.37929   -0.10851
       3.68903   -9.68488    0.12920    3.63986  -10.17405    0.16070    5.07409   -9.78727
       0.37777
 CYCLE:     1 TIME:   0.015 TIME LEFT:  2.00D  GRAD.:    82.600 HEAT:  20.98121

          HESSIAN HAS  0 NEGATIVE EIGENVALUE(S)
  MIN SEARCH, CORRECT HESSIAN, TRYING PURE NR STEP
 LAMBDA THAT MINIMIZES ALONG ALL MODES =        0.000000000
 PURE NR-STEP HAS LENGTH   0.20493
 LAMBDA THAT MINIMIZES ALONG ALL MODES =      -12.248907649
 P-RFO-STEP   HAS LENGTH   0.19516

  HEAT OF FORMATION        12.033351096382830    
 PARAMETERS       -0.002   0.004  -0.014   2.148  -0.033   0.031   1.511   1.676
   0.017   1.837   1.657   4.506   1.830   1.652   4.534   1.487   1.899   4.875

   1.493   1.878   3.116   1.345   2.111   2.133   1.345   2.112   2.119   1.110

   1.894   2.756   1.112   1.932   0.758   1.108   1.913   5.226   1.114   1.915

   1.025   1.087   2.055   5.255   1.088   2.052   5.245   1.082   2.110   3.144

   1.080   2.131   6.284   1.082   2.109   3.142   1.079   2.132   6.284
 GRADIENT         -0.000  -0.000  -0.000  -6.695   0.000   0.000  26.065 -32.074
   0.000  -5.091 -12.544  12.358 -10.825 -19.228  -0.932   1.601  -3.007   1.368

   1.926   0.681   2.096  12.849  -3.629   0.918  12.811  -3.239   0.962   0.876

  -0.394   0.634   1.641  -2.134  -2.906   0.013  -2.502  -2.363   1.452  -2.306

   0.305  -0.614   1.933   0.482  -0.819   2.582   0.144   2.219  -6.747   0.096

   1.017  -6.386   0.532   2.160  -6.600   0.234   1.432  -6.521   0.568
       HoF         ACTUAL,  PREDICTED ENERGY CHANGE, RATIO
    12.0333511    -8.9478621          -6.3577234    1.4074004
     STEPSIZE USED IS  0.19516
 CALCULATED STEP
    -0.002330  0.003730 -0.013759  0.012061 -0.032544  0.030575 -0.025707  0.065553
     0.017227  0.011716  0.011713 -0.144952  0.011603  0.026574  0.022719 -0.013962
    -0.014336  0.023813 -0.008092 -0.023003  0.021196  0.009159 -0.017662  0.014727
     0.008352 -0.019405  0.012930  0.000253 -0.003755 -0.031331 -0.000468  0.002711
     0.033511 -0.004337  0.004347  0.014650  0.003611  0.001852 -0.015159  0.000665
    -0.019763 -0.003381  0.002077 -0.021712 -0.000040 -0.003109  0.016761  0.003506
    -0.005680  0.014507  0.002404 -0.003243  0.016360  0.002237 -0.007048  0.014707
     0.001233
     NEW TRUST RADIUS =  0.20000

     HESSIAN IS BEING UPDATED USING THE BFGS UPDATE

*REMARK   3 IPH = Phenol res:    1
 PM7 CHARGE=0 EF NOXYZ PRNT=2 PDBOUT COMPFG GRAPHF
 65036

  S(HETATM    1  S1  IPH A   1)  -0.00232973 +1    0.0037300 +1   -0.0137591 +1
  S(HETATM    2  S2  IPH A   1)   2.14805161 +1   -1.8646188 +1    1.7518422 +1     1     0     0
  O(HETATM    3  O   IPH A   1)   1.51092023 +1   96.0304920 +1    0.9870528 +1     1     2     0
  C(HETATM    4  C1  IPH A   1)   1.83717227 +1   94.9132880 +1 -101.8309416 +1     1     2     3
  C(HETATM    5  C2  IPH A   1)   1.82997318 +1   94.6771224 +1 -100.2182142 +1     2     1     3
  C(HETATM    6  C3  IPH A   1)   1.48739557 +1  108.8285894 +1  -80.6563719 +1     4     1     2
  C(HETATM    7  C4  IPH A   1)   1.49281526 +1  107.6230748 +1  178.5271829 +1     5     2     1
  C(HETATM    8  C5  IPH A   1)   1.34517229 +1  120.9765406 +1  122.2398497 +1     6     4     1
  C(HETATM    9  C6  IPH A   1)   1.34478425 +1  121.0276427 +1  121.3940620 +1     7     5     2
  H(HETATM   10 1H1  IPH A   1)   1.11048832 +1  108.4977478 +1  157.9335383 +1     4     1     2
  H(HETATM   11 2H1  IPH A   1)   1.11234292 +1  110.7038623 +1   43.4066237 +1     4     1     2
  H(HETATM   12 1H2  IPH A   1)   1.10752883 +1  109.6260461 +1  -60.5838971 +1     5     2     1
  H(HETATM   13 2H2  IPH A   1)   1.11391892 +1  109.7156175 +1   58.7360573 +1     5     2     1
  H(HETATM   14  H3  IPH A   1)   1.08667245 +1  117.7323282 +1  -58.9270601 +1     6     4     1
  H(HETATM   15  H4  IPH A   1)   1.08830085 +1  117.5644076 +1  -59.4926033 +1     7     5     2
  H(HETATM   16 1H5  IPH A   1)   1.08198292 +1  120.9124300 +1 -179.8833807 +1     8     6     4
  H(HETATM   17 2H5  IPH A   1)   1.08006558 +1  122.0747935 +1    0.0523118 +1     8     6     4
  H(HETATM   18 1H6  IPH A   1)   1.08191535 +1  120.8618547 +1 -179.9581071 +1     9     7     5
  H(HETATM   19 2H6  IPH A   1)   1.07858569 +1  122.1319204 +1    0.0455052 +1     9     7     5

 XPARAM 
  1  1   -0.0023  1  2    0.0037  1  3   -0.0138  2  1    2.1481  2  2   -0.0325
  2  3    0.0306  3  1    1.5109  3  2    1.6760  3  3    0.0172  4  1    1.8372
  4  2    1.6565  4  3    4.5059  5  1    1.8300  5  2    1.6524  5  3    4.5340
  6  1    1.4874  6  2    1.8994  6  3    4.8755  7  1    1.4928  7  2    1.8784
  7  3    3.1159  8  1    1.3452  8  2    2.1114  8  3    2.1335  9  1    1.3448
  9  2    2.1123  9  3    2.1187 10  1    1.1105 10  2    1.8936 10  3    2.7565
 11  1    1.1123 11  2    1.9321 11  3    0.7576 12  1    1.1075 12  2    1.9133
 12  3    5.2258 13  1    1.1139 13  2    1.9149 13  3    1.0251 14  1    1.0867
 14  2    2.0548 14  3    5.2547 15  1    1.0883 15  2    2.0519 15  3    5.2448
 16  1    1.0820 16  2    2.1103 16  3    3.1436 17  1    1.0801 17  2    2.1306
 17  3    6.2841 18  1    1.0819 18  2    2.1094 18  3    3.1423 19  1    1.0786
 19  2    2.1316 19  3    6.2840
 grad
      -0.00000   -0.00000   -0.00000   -6.69520    0.00000    0.00000   26.06450  -32.07407
       0.00000   -5.09078  -12.54353   12.35814  -10.82505  -19.22830   -0.93208    1.60080
      -3.00656    1.36796    1.92574    0.68144    2.09640   12.84922   -3.62871    0.91754
      12.81098   -3.23887    0.96218    0.87630   -0.39386    0.63428    1.64089   -2.13447
      -2.90564    0.01267   -2.50152   -2.36346    1.45218   -2.30622    0.30531   -0.61387
       1.93285    0.48247   -0.81903    2.58237    0.14433    2.21859   -6.74724    0.09610
       1.01728   -6.38574    0.53190    2.15953   -6.60033    0.23376    1.43168   -6.52143
       0.56789
 CYCLE:     2 TIME:   0.009 TIME LEFT:  2.00D  GRAD.:    56.455 HEAT:  12.03335

          HESSIAN HAS  0 NEGATIVE EIGENVALUE(S)
  MIN SEARCH, CORRECT HESSIAN, TRYING PURE NR STEP
 LAMBDA THAT MINIMIZES ALONG ALL MODES =        0.000000000
 PURE NR-STEP HAS LENGTH   0.22145
 LAMBDA THAT MINIMIZES ALONG ALL MODES =       -7.990217862
 P-RFO-STEP   HAS LENGTH   0.21038
 LAMBDA THAT MINIMIZES ALONG ALL MODES =      -16.345540843
 QA/TRIM-STEP HAS LENGTH   0.20000

  HEAT OF FORMATION        7.1240957258705748    
 PARAMETERS       -0.001   0.009  -0.043   2.165  -0.094   0.067   1.477   1.776
   0.038   1.849   1.668   4.396   1.852   1.691   4.566   1.482   1.877   4.884

   1.494   1.844   3.118   1.337   2.097   2.142   1.336   2.096   2.127   1.111

   1.888   2.748   1.114   1.935   0.791   1.106   1.916   5.251   1.116   1.918

   1.022   1.088   2.037   5.253   1.090   2.031   5.246   1.080   2.132   3.146

   1.076   2.149   6.283   1.080   2.130   3.144   1.074   2.150   6.282
 GRADIENT         -0.000  -0.000  -0.000   3.600   0.000   0.000   3.073 -18.351
   0.000   1.851  -7.885   0.636  -0.306 -12.344  -0.923  -2.584  -5.417   0.976

   2.774  -3.446   0.586   0.294  -7.981   1.570   0.967  -7.478   1.366   1.721

  -0.720  -3.002   3.370  -2.741   1.316   1.258  -1.915   0.870   4.229  -1.162

  -1.471   0.018  -1.808   0.051   0.766  -1.438   0.036   0.113  -3.603   0.281

  -1.960  -3.468   0.660  -0.012  -3.471   0.301  -2.285  -3.480   0.590
       HoF         ACTUAL,  PREDICTED ENERGY CHANGE, RATIO
     7.1240957    -4.9092554          -4.1462564    1.1840212
     STEPSIZE USED IS  0.20000
 CALCULATED STEP
     0.001826  0.005598 -0.028938  0.016500 -0.061433  0.036815 -0.034413  0.100386
     0.020334  0.011492  0.011307 -0.109642  0.021589  0.038187  0.031937 -0.005473
    -0.022377  0.008491  0.001276 -0.034521  0.001954 -0.008629 -0.014242  0.008932
    -0.008692 -0.015965  0.008231  0.000796 -0.005276 -0.008442  0.001384  0.003142
     0.033108 -0.001185  0.002799  0.025053  0.002361  0.003411 -0.002669  0.001435
    -0.017954 -0.001916  0.002136 -0.020654  0.001523 -0.002236  0.021428  0.002593
    -0.003819  0.018264 -0.001221 -0.002164  0.020826  0.001211 -0.004874  0.018787
    -0.001743
     NEW TRUST RADIUS =  0.28284
*REMARK   3 IPH = Phenol res:    1
 PM7 CHARGE=0 EF NOXYZ PRNT=2 PDBOUT COMPFG GRAPHF
 65036

  S(HETATM    1  S1  IPH A   1)  -0.00050383 +1    0.0093282 +1   -0.0426966 +1
  S(HETATM    2  S2  IPH A   1)   2.16455125 +1   -5.3844454 +1    3.8611602 +1     1     0     0
  O(HETATM    3  O   IPH A   1)   1.47650753 +1  101.7822065 +1    2.1520824 +1     1     2     0
  C(HETATM    4  C1  IPH A   1)   1.84866475 +1   95.5611154 +1 -108.1129683 +1     1     2     3
  C(HETATM    5  C2  IPH A   1)   1.85156222 +1   96.8651042 +1  -98.3883614 +1     2     1     3
  C(HETATM    6  C3  IPH A   1)   1.48192296 +1  107.5465103 +1  -80.1698518 +1     4     1     2
  C(HETATM    7  C4  IPH A   1)   1.49409162 +1  105.6451865 +1  178.6391570 +1     5     2     1
  C(HETATM    8  C5  IPH A   1)   1.33654285 +1  120.1605620 +1  122.7516199 +1     6     4     1
  C(HETATM    9  C6  IPH A   1)   1.33609263 +1  120.1128903 +1  121.8656741 +1     7     5     2
  H(HETATM   10 1H1  IPH A   1)   1.11128414 +1  108.1954809 +1  157.4498499 +1     4     1     2
  H(HETATM   11 2H1  IPH A   1)   1.11372686 +1  110.8838809 +1   45.3035781 +1     4     1     2
  H(HETATM   12 1H2  IPH A   1)   1.10634355 +1  109.7863892 +1  -59.1484844 +1     5     2     1
  H(HETATM   13 2H2  IPH A   1)   1.11627961 +1  109.9110646 +1   58.5831167 +1     5     2     1
  H(HETATM   14  H3  IPH A   1)   1.08810748 +1  116.7036655 +1  -59.0368298 +1     6     4     1
  H(HETATM   15  H4  IPH A   1)   1.09043731 +1  116.3810158 +1  -59.4053213 +1     7     5     2
  H(HETATM   16 1H5  IPH A   1)   1.07974666 +1  122.1401381 +1 -179.7348075 +1     8     6     4
  H(HETATM   17 2H5  IPH A   1)   1.07624630 +1  123.1212304 +1   -0.0176727 +1     8     6     4
  H(HETATM   18 1H6  IPH A   1)   1.07975125 +1  122.0551092 +1 -179.8887219 +1     9     7     5
  H(HETATM   19 2H6  IPH A   1)   1.07371129 +1  123.2083294 +1   -0.0543708 +1     9     7     5

 XPARAM 
  1  1   -0.0005  1  2    0.0093  1  3   -0.0427  2  1    2.1646  2  2   -0.0940
  2  3    0.0674  3  1    1.4765  3  2    1.7764  3  3    0.0376  4  1    1.8487
  4  2    1.6679  4  3    4.3963  5  1    1.8516  5  2    1.6906  5  3    4.5660
  6  1    1.4819  6  2    1.8770  6  3    4.8840  7  1    1.4941  7  2    1.8439
  7  3    3.1178  8  1    1.3365  8  2    2.0972  8  3    2.1424  9  1    1.3361
  9  2    2.0964  9  3    2.1270 10  1    1.1113 10  2    1.8884 10  3    2.7480
 11  1    1.1137 11  2    1.9353 11  3    0.7907 12  1    1.1063 12  2    1.9161
 12  3    5.2508 13  1    1.1163 13  2    1.9183 13  3    1.0225 14  1    1.0881
 14  2    2.0369 14  3    5.2528 15  1    1.0904 15  2    2.0312 15  3    5.2464
 16  1    1.0797 16  2    2.1317 16  3    3.1462 17  1    1.0762 17  2    2.1489
 17  3    6.2829 18  1    1.0798 18  2    2.1303 18  3    3.1435 19  1    1.0737
 19  2    2.1504 19  3    6.2822
 grad
      -0.00000   -0.00000   -0.00000    3.59960    0.00000    0.00000    3.07333  -18.35111
       0.00000    1.85051   -7.88529    0.63618   -0.30628  -12.34375   -0.92297   -2.58353
      -5.41701    0.97570    2.77368   -3.44643    0.58648    0.29424   -7.98132    1.56960
       0.96668   -7.47791    1.36560    1.72109   -0.72009   -3.00224    3.37031   -2.74115
       1.31629    1.25786   -1.91534    0.86951    4.22897   -1.16227   -1.47088    0.01821
      -1.80773    0.05115    0.76587   -1.43756    0.03637    0.11348   -3.60261    0.28103
      -1.95982   -3.46821    0.66037   -0.01194   -3.47076    0.30072   -2.28508   -3.47984
       0.58981
 CYCLE:     3 TIME:   0.010 TIME LEFT:  2.00D  GRAD.:    29.765 HEAT:  7.124096

          HESSIAN HAS  0 NEGATIVE EIGENVALUE(S)
  MIN SEARCH, CORRECT HESSIAN, TRYING PURE NR STEP
 LAMBDA THAT MINIMIZES ALONG ALL MODES =        0.000000000
 PURE NR-STEP HAS LENGTH   0.10604

  HEAT OF FORMATION        5.8925566090401844    
 PARAMETERS        0.001  -0.001  -0.062   2.166  -0.134   0.076   1.465   1.844
   0.051   1.851   1.672   4.359   1.859   1.715   4.588   1.484   1.864   4.888

   1.492   1.825   3.123   1.338   2.099   2.142   1.336   2.096   2.128   1.110

   1.884   2.765   1.110   1.940   0.794   1.104   1.916   5.253   1.112   1.919

   1.032   1.089   2.029   5.253   1.090   2.022   5.248   1.079   2.144   3.147

   1.078   2.158   6.280   1.079   2.142   3.144   1.075   2.159   6.280
 GRADIENT         -0.000  -0.000  -0.000   7.398   0.000   0.000  -5.588 -10.132
   0.000   2.384  -5.769  -2.534   2.595  -8.766  -0.909  -1.633  -6.383   0.376

  -0.177  -5.243   0.168   4.480  -7.989   1.477   2.836  -8.317   1.301   0.930

  -1.163  -2.366   2.211  -3.183   1.333   0.388  -1.813   0.696   2.433  -1.061

  -0.912   0.511  -2.978   0.222   0.599  -3.358   0.320   0.043  -1.582   0.358

  -1.105  -1.522   0.522  -0.123  -1.594   0.328  -1.520  -1.605   0.454
       HoF         ACTUAL,  PREDICTED ENERGY CHANGE, RATIO
     5.8925566    -1.2315391          -0.8760656    1.4057613
     STEPSIZE USED IS  0.10604
 CALCULATED STEP
     0.001766 -0.010733 -0.019072  0.001927 -0.039922  0.008158 -0.011953  0.067564
     0.013160  0.002266  0.004458 -0.037354  0.007634  0.024329  0.022025  0.001790
    -0.013218  0.003860 -0.002565 -0.018908  0.004670  0.001094  0.001306 -0.000352
     0.000071 -0.000646  0.000714 -0.001590 -0.004316  0.017259 -0.003527  0.005065
     0.003272 -0.002248  0.000297  0.002620 -0.004086  0.000537  0.009640  0.000690
    -0.007416  0.000626 -0.000023 -0.009278  0.001823 -0.000440  0.011894  0.000883
     0.001356  0.008726 -0.002676 -0.000263  0.011347  0.000308  0.001407  0.008903
    -0.002421
     NEW TRUST RADIUS =  0.28284
*REMARK   3 IPH = Phenol res:    1
 PM7 CHARGE=0 EF NOXYZ PRNT=2 PDBOUT COMPFG GRAPHF
 65036

  S(HETATM    1  S1  IPH A   1)   0.00126198 +1   -0.0014052 +1   -0.0617683 +1
  S(HETATM    2  S2  IPH A   1)   2.16647799 +1   -7.6718257 +1    4.3285925 +1     1     0     0
  O(HETATM    3  O   IPH A   1)   1.46455445 +1  105.6533354 +1    2.9061196 +1     1     2     0
  C(HETATM    4  C1  IPH A   1)   1.85093076 +1   95.8165122 +1 -110.2531914 +1     1     2     3
  C(HETATM    5  C2  IPH A   1)   1.85919603 +1   98.2590309 +1  -97.1264068 +1     2     1     3
  C(HETATM    6  C3  IPH A   1)   1.48371318 +1  106.7891473 +1  -79.9486664 +1     4     1     2
  C(HETATM    7  C4  IPH A   1)   1.49152675 +1  104.5618146 +1  178.9067237 +1     5     2     1
  C(HETATM    8  C5  IPH A   1)   1.33763655 +1  120.2354112 +1  122.7314501 +1     6     4     1
  C(HETATM    9  C6  IPH A   1)   1.33616396 +1  120.0758671 +1  121.9066073 +1     7     5     2
  H(HETATM   10 1H1  IPH A   1)   1.10969382 +1  107.9481678 +1  158.4387056 +1     4     1     2
  H(HETATM   11 2H1  IPH A   1)   1.11020027 +1  111.1741080 +1   45.4910502 +1     4     1     2
  H(HETATM   12 1H2  IPH A   1)   1.10409556 +1  109.8033843 +1  -58.9983729 +1     5     2     1
  H(HETATM   13 2H2  IPH A   1)   1.11219361 +1  109.9418200 +1   59.1354615 +1     5     2     1
  H(HETATM   14  H3  IPH A   1)   1.08879699 +1  116.2787744 +1  -59.0009662 +1     6     4     1
  H(HETATM   15  H4  IPH A   1)   1.09041383 +1  115.8494258 +1  -59.3008608 +1     7     5     2
  H(HETATM   16 1H5  IPH A   1)   1.07930689 +1  122.8216066 +1 -179.6842304 +1     8     6     4
  H(HETATM   17 2H5  IPH A   1)   1.07760271 +1  123.6212059 +1   -0.1709776 +1     8     6     4
  H(HETATM   18 1H6  IPH A   1)   1.07948784 +1  122.7052405 +1 -179.8710477 +1     9     7     5
  H(HETATM   19 2H6  IPH A   1)   1.07511828 +1  123.7184126 +1   -0.1930854 +1     9     7     5

 XPARAM 
  1  1    0.0013  1  2   -0.0014  1  3   -0.0618  2  1    2.1665  2  2   -0.1339
  2  3    0.0755  3  1    1.4646  3  2    1.8440  3  3    0.0507  4  1    1.8509
  4  2    1.6723  4  3    4.3589  5  1    1.8592  5  2    1.7149  5  3    4.5880
  6  1    1.4837  6  2    1.8638  6  3    4.8878  7  1    1.4915  7  2    1.8249
  7  3    3.1225  8  1    1.3376  8  2    2.0985  8  3    2.1421  9  1    1.3362
  9  2    2.0957  9  3    2.1277 10  1    1.1097 10  2    1.8841 10  3    2.7653
 11  1    1.1102 11  2    1.9404 11  3    0.7940 12  1    1.1041 12  2    1.9164
 12  3    5.2535 13  1    1.1122 13  2    1.9188 13  3    1.0321 14  1    1.0888
 14  2    2.0294 14  3    5.2534 15  1    1.0904 15  2    2.0220 15  3    5.2482
 16  1    1.0793 16  2    2.1436 16  3    3.1471 17  1    1.0776 17  2    2.1576
 17  3    6.2802 18  1    1.0795 18  2    2.1416 18  3    3.1438 19  1    1.0751
 19  2    2.1593 19  3    6.2798
 grad
      -0.00000   -0.00000   -0.00000    7.39840    0.00000    0.00000   -5.58850  -10.13237
       0.00000    2.38409   -5.76863   -2.53447    2.59510   -8.76569   -0.90925   -1.63299
      -6.38329    0.37643   -0.17659   -5.24261    0.16801    4.47985   -7.98908    1.47675
       2.83561   -8.31707    1.30097    0.92966   -1.16338   -2.36613    2.21142   -3.18255
       1.33317    0.38791   -1.81280    0.69572    2.43319   -1.06120   -0.91182    0.51095
      -2.97829    0.22225    0.59944   -3.35795    0.31970    0.04290   -1.58171    0.35756
      -1.10476   -1.52186    0.52191   -0.12325   -1.59442    0.32799   -1.51979   -1.60545
       0.45421
 CYCLE:     4 TIME:   0.009 TIME LEFT:  2.00D  GRAD.:    25.020 HEAT:  5.892557

          HESSIAN HAS  0 NEGATIVE EIGENVALUE(S)
  MIN SEARCH, CORRECT HESSIAN, TRYING PURE NR STEP
 LAMBDA THAT MINIMIZES ALONG ALL MODES =        0.000000000
 PURE NR-STEP HAS LENGTH   0.09139

  HEAT OF FORMATION        5.1558883561592666    
 PARAMETERS        0.005  -0.021  -0.080   2.160  -0.171   0.069   1.466   1.902
   0.064   1.853   1.674   4.349   1.863   1.736   4.611   1.488   1.855   4.894

   1.492   1.813   3.129   1.333   2.107   2.138   1.334   2.104   2.125   1.108

   1.881   2.789   1.106   1.949   0.791   1.103   1.916   5.253   1.108   1.919

   1.043   1.089   2.027   5.253   1.091   2.019   5.248   1.079   2.151   3.147

   1.080   2.161   6.277   1.080   2.149   3.144   1.078   2.163   6.277
 GRADIENT         -0.000  -0.000  -0.000   8.733   0.000   0.000  -2.176  -3.725
   0.000   2.468  -4.343  -3.081   4.048  -6.304  -0.917   0.966  -6.468   0.273

   0.403  -6.085   0.161  -1.943  -6.311   1.214   0.035  -6.706   1.166   0.266

  -1.426  -0.910   0.416  -2.906   0.153  -0.036  -1.892   0.135   0.362  -1.254

  -0.333   0.223  -2.296   0.470   0.145  -3.081   0.580  -0.098  -0.793   0.380

  -0.021  -0.959   0.330   0.049  -0.700   0.334  -0.002  -0.823   0.301
       HoF         ACTUAL,  PREDICTED ENERGY CHANGE, RATIO
     5.1558884    -0.7366683          -0.5100121    1.4444134
     STEPSIZE USED IS  0.09139
 CALCULATED STEP
     0.003409 -0.019278 -0.018594 -0.006026 -0.037219 -0.006722  0.001379  0.058298
     0.013073  0.001576  0.001540 -0.010278  0.003786  0.020774  0.022683  0.004604
    -0.009032  0.005752  0.000861 -0.011852  0.006936 -0.004403  0.008635 -0.003841
    -0.002268  0.008705 -0.002253 -0.001414 -0.003362  0.023599 -0.004471  0.009140
    -0.003041 -0.001096 -0.000165 -0.000468 -0.004572  0.000397  0.010971  0.000452
    -0.002736 -0.000179  0.000202 -0.002564 -0.000029 -0.000017  0.007210 -0.000049
     0.002513  0.003151 -0.002988  0.000307  0.006974 -0.000224  0.003012  0.003529
    -0.002484
     NEW TRUST RADIUS =  0.28284
*REMARK   3 IPH = Phenol res:    1
 PM7 CHARGE=0 EF NOXYZ PRNT=2 PDBOUT COMPFG GRAPHF
 65036

  S(HETATM    1  S1  IPH A   1)   0.00467120 +1   -0.0206832 +1   -0.0803625 +1
  S(HETATM    2  S2  IPH A   1)   2.16045196 +1   -9.8043374 +1    3.9434523 +1     1     0     0
  O(HETATM    3  O   IPH A   1)   1.46593391 +1  108.9935855 +1    3.6551569 +1     1     2     0
  C(HETATM    4  C1  IPH A   1)   1.85250725 +1   95.9047366 +1 -110.8420510 +1     1     2     3
  C(HETATM    5  C2  IPH A   1)   1.86298205 +1   99.4492739 +1  -95.8267775 +1     2     1     3
  C(HETATM    6  C3  IPH A   1)   1.48831721 +1  106.2716584 +1  -79.6190936 +1     4     1     2
  C(HETATM    7  C4  IPH A   1)   1.49238738 +1  103.8827568 +1  179.3041012 +1     5     2     1
  C(HETATM    8  C5  IPH A   1)   1.33323348 +1  120.7301565 +1  122.5113762 +1     6     4     1
  C(HETATM    9  C6  IPH A   1)   1.33389581 +1  120.5746066 +1  121.7775347 +1     7     5     2
  H(HETATM   10 1H1  IPH A   1)   1.10827941 +1  107.7555375 +1  159.7908334 +1     4     1     2
  H(HETATM   11 2H1  IPH A   1)   1.10572886 +1  111.6977746 +1   45.3168124 +1     4     1     2
  H(HETATM   12 1H2  IPH A   1)   1.10299962 +1  109.7939456 +1  -59.0251865 +1     5     2     1
  H(HETATM   13 2H2  IPH A   1)   1.10762204 +1  109.9645531 +1   59.7640398 +1     5     2     1
  H(HETATM   14  H3  IPH A   1)   1.08924909 +1  116.1220345 +1  -59.0112130 +1     6     4     1
  H(HETATM   15  H4  IPH A   1)   1.09061571 +1  115.7025187 +1  -59.3025460 +1     7     5     2
  H(HETATM   16 1H5  IPH A   1)   1.07929016 +1  123.2347118 +1 -179.6870236 +1     8     6     4
  H(HETATM   17 2H5  IPH A   1)   1.08011572 +1  123.8017312 +1   -0.3421530 +1     8     6     4
  H(HETATM   18 1H6  IPH A   1)   1.07979501 +1  123.1048053 +1 -179.8838967 +1     9     7     5
  H(HETATM   19 2H6  IPH A   1)   1.07813010 +1  123.9206110 +1   -0.3353923 +1     9     7     5

 XPARAM 
  1  1    0.0047  1  2   -0.0207  1  3   -0.0804  2  1    2.1605  2  2   -0.1711
  2  3    0.0688  3  1    1.4659  3  2    1.9023  3  3    0.0638  4  1    1.8525
  4  2    1.6739  4  3    4.3486  5  1    1.8630  5  2    1.7357  5  3    4.6107
  6  1    1.4883  6  2    1.8548  6  3    4.8936  7  1    1.4924  7  2    1.8131
  7  3    3.1294  8  1    1.3332  8  2    2.1071  8  3    2.1382  9  1    1.3339
  9  2    2.1044  9  3    2.1254 10  1    1.1083 10  2    1.8807 10  3    2.7889
 11  1    1.1057 11  2    1.9495 11  3    0.7909 12  1    1.1030 12  2    1.9163
 12  3    5.2530 13  1    1.1076 13  2    1.9192 13  3    1.0431 14  1    1.0892
 14  2    2.0267 14  3    5.2532 15  1    1.0906 15  2    2.0194 15  3    5.2482
 16  1    1.0793 16  2    2.1509 16  3    3.1471 17  1    1.0801 17  2    2.1607
 17  3    6.2772 18  1    1.0798 18  2    2.1486 18  3    3.1436 19  1    1.0781
 19  2    2.1628 19  3    6.2773
 grad
      -0.00000   -0.00000   -0.00000    8.73343    0.00000    0.00000   -2.17558   -3.72517
       0.00000    2.46820   -4.34296   -3.08078    4.04849   -6.30417   -0.91746    0.96634
      -6.46830    0.27338    0.40270   -6.08526    0.16127   -1.94334   -6.31093    1.21396
       0.03520   -6.70620    1.16568    0.26568   -1.42596   -0.91030    0.41649   -2.90564
       0.15330   -0.03621   -1.89240    0.13545    0.36228   -1.25403   -0.33318    0.22320
      -2.29645    0.47019    0.14483   -3.08095    0.57979   -0.09826   -0.79294    0.38037
      -0.02081   -0.95906    0.32974    0.04863   -0.69991    0.33379   -0.00187   -0.82298
       0.30064
 CYCLE:     5 TIME:   0.010 TIME LEFT:  2.00D  GRAD.:    19.833 HEAT:  5.155888

          HESSIAN HAS  0 NEGATIVE EIGENVALUE(S)
  MIN SEARCH, CORRECT HESSIAN, TRYING PURE NR STEP
 LAMBDA THAT MINIMIZES ALONG ALL MODES =        0.000000000
 PURE NR-STEP HAS LENGTH   0.08515

  HEAT OF FORMATION        4.6964551868513809    
 PARAMETERS        0.010  -0.046  -0.100   2.148  -0.203   0.049   1.468   1.947
   0.078   1.853   1.673   4.361   1.862   1.753   4.635   1.492   1.851   4.899

   1.494   1.810   3.137   1.336   2.120   2.133   1.334   2.118   2.121   1.107

   1.879   2.811   1.102   1.962   0.791   1.103   1.917   5.254   1.104   1.921

   1.054   1.090   2.025   5.251   1.091   2.020   5.245   1.080   2.155   3.146

   1.083   2.160   6.275   1.080   2.152   3.143   1.081   2.162   6.275
 GRADIENT         -0.000  -0.000  -0.000   7.633   0.000   0.000   0.246   0.642
   0.000   1.851  -3.052  -1.311   4.116  -4.680  -0.875   3.915  -6.208   0.071

   2.124  -5.919   0.124   4.968  -3.750   0.971   1.856  -3.853   1.075  -0.314

  -1.254   0.495  -0.931  -1.994  -0.863  -0.094  -1.929  -0.408  -1.247  -1.299

   0.270   0.552  -1.563   0.666   0.066  -1.898   0.699   0.713  -0.100   0.356

   1.581  -0.531   0.177   0.582  -0.276   0.335   1.454  -0.614   0.203
       HoF         ACTUAL,  PREDICTED ENERGY CHANGE, RATIO
     4.6964552    -0.4594332          -0.3313233    1.3866614
     STEPSIZE USED IS  0.08515
 CALCULATED STEP
     0.005758 -0.025220 -0.019224 -0.012468 -0.032002 -0.019869  0.002013  0.044362
     0.014160  0.000362 -0.000356  0.012748 -0.000498  0.017605  0.024757  0.003716
    -0.004019  0.005751  0.001154 -0.002988  0.007079  0.003164  0.012869 -0.005382
     0.000591  0.013865 -0.004148 -0.000830 -0.001697  0.022018 -0.003253  0.012191
     0.000281  0.000013  0.000354  0.000855 -0.003139  0.001687  0.010660  0.000902
    -0.001288 -0.002156  0.000816  0.001048 -0.002736  0.000543  0.003849 -0.000831
     0.002404 -0.000439 -0.002360  0.000471  0.003330 -0.000657  0.002583 -0.000696
    -0.001871
     NEW TRUST RADIUS =  0.28284
*REMARK   3 IPH = Phenol res:    1
 PM7 CHARGE=0 EF NOXYZ PRNT=2 PDBOUT COMPFG GRAPHF
 65036

  S(HETATM    1  S1  IPH A   1)   0.01042934 +1   -0.0459035 +1   -0.0995869 +1
  S(HETATM    2  S2  IPH A   1)   2.14798443 +1  -11.6379292 +1    2.8050328 +1     1     0     0
  O(HETATM    3  O   IPH A   1)   1.46794705 +1  111.5353566 +1    4.4664811 +1     1     2     0
  C(HETATM    4  C1  IPH A   1)   1.85286949 +1   95.8843487 +1 -110.1116439 +1     1     2     3
  C(HETATM    5  C2  IPH A   1)   1.86248441 +1  100.4579711 +1  -94.4082920 +1     2     1     3
  C(HETATM    6  C3  IPH A   1)   1.49203369 +1  106.0413741 +1  -79.2895973 +1     4     1     2
  C(HETATM    7  C4  IPH A   1)   1.49354165 +1  103.7115307 +1  179.7096804 +1     5     2     1
  C(HETATM    8  C5  IPH A   1)   1.33639727 +1  121.4675122 +1  122.2030235 +1     6     4     1
  C(HETATM    9  C6  IPH A   1)   1.33448720 +1  121.3690010 +1  121.5398858 +1     7     5     2
  H(HETATM   10 1H1  IPH A   1)   1.10744945 +1  107.6583171 +1  161.0523588 +1     4     1     2
  H(HETATM   11 2H1  IPH A   1)   1.10247633 +1  112.3962816 +1   45.3329380 +1     4     1     2
  H(HETATM   12 1H2  IPH A   1)   1.10301241 +1  109.8142325 +1  -58.9762000 +1     5     2     1
  H(HETATM   13 2H2  IPH A   1)   1.10448269 +1  110.0611834 +1   60.3747954 +1     5     2     1
  H(HETATM   14  H3  IPH A   1)   1.09015132 +1  116.0482203 +1  -59.1347164 +1     6     4     1
  H(HETATM   15  H4  IPH A   1)   1.09143218 +1  115.7625641 +1  -59.4592853 +1     7     5     2
  H(HETATM   16 1H5  IPH A   1)   1.07983281 +1  123.4552245 +1 -179.7346640 +1     8     6     4
  H(HETATM   17 2H5  IPH A   1)   1.08251936 +1  123.7765511 +1   -0.4773588 +1     8     6     4
  H(HETATM   18 1H6  IPH A   1)   1.08026571 +1  123.2956192 +1 -179.9215334 +1     9     7     5
  H(HETATM   19 2H6  IPH A   1)   1.08071301 +1  123.8807466 +1   -0.4425712 +1     9     7     5

 XPARAM 
  1  1    0.0104  1  2   -0.0459  1  3   -0.0996  2  1    2.1480  2  2   -0.2031
  2  3    0.0490  3  1    1.4679  3  2    1.9467  3  3    0.0780  4  1    1.8529
  4  2    1.6735  4  3    4.3614  5  1    1.8625  5  2    1.7533  5  3    4.6354
  6  1    1.4920  6  2    1.8508  6  3    4.8993  7  1    1.4935  7  2    1.8101
  7  3    3.1365  8  1    1.3364  8  2    2.1200  8  3    2.1328  9  1    1.3345
  9  2    2.1183  9  3    2.1213 10  1    1.1074 10  2    1.8790 10  3    2.8109
 11  1    1.1025 11  2    1.9617 11  3    0.7912 12  1    1.1030 12  2    1.9166
 12  3    5.2539 13  1    1.1045 13  2    1.9209 13  3    1.0537 14  1    1.0902
 14  2    2.0254 14  3    5.2511 15  1    1.0914 15  2    2.0204 15  3    5.2454
 16  1    1.0798 16  2    2.1547 16  3    3.1462 17  1    1.0825 17  2    2.1603
 17  3    6.2749 18  1    1.0803 18  2    2.1519 18  3    3.1430 19  1    1.0807
 19  2    2.1621 19  3    6.2755
 grad
      -0.00000   -0.00000   -0.00000    7.63327    0.00000    0.00000    0.24643    0.64158
       0.00000    1.85084   -3.05186   -1.31063    4.11586   -4.67964   -0.87481    3.91496
      -6.20840    0.07101    2.12416   -5.91886    0.12355    4.96848   -3.75022    0.97085
       1.85639   -3.85264    1.07519   -0.31447   -1.25438    0.49494   -0.93052   -1.99429
      -0.86310   -0.09382   -1.92879   -0.40810   -1.24657   -1.29913    0.27028    0.55224
      -1.56349    0.66645    0.06569   -1.89803    0.69869    0.71279   -0.10036    0.35648
       1.58081   -0.53073    0.17700    0.58192   -0.27626    0.33510    1.45426   -0.61362
       0.20265
 CYCLE:     6 TIME:   0.009 TIME LEFT:  2.00D  GRAD.:    17.143 HEAT:  4.696455

          HESSIAN HAS  0 NEGATIVE EIGENVALUE(S)
  MIN SEARCH, CORRECT HESSIAN, TRYING PURE NR STEP
 LAMBDA THAT MINIMIZES ALONG ALL MODES =        0.000000000
 PURE NR-STEP HAS LENGTH   0.06362

  HEAT OF FORMATION        4.4434953659292660    
 PARAMETERS        0.018  -0.064  -0.113   2.135  -0.224   0.024   1.472   1.966
   0.091   1.855   1.671   4.379   1.861   1.764   4.657   1.494   1.854   4.906

   1.495   1.816   3.143   1.334   2.131   2.129   1.336   2.130   2.117   1.108

   1.879   2.821   1.103   1.972   0.798   1.104   1.918   5.258   1.105   1.924

   1.059   1.091   2.025   5.247   1.093   2.022   5.241   1.080   2.154   3.145

   1.083   2.157   6.274   1.081   2.152   3.142   1.082   2.159   6.275
 GRADIENT         -0.000  -0.000  -0.000   5.367   0.000   0.000   3.810   1.976
   0.000   2.650  -2.507   0.103   4.417  -4.093  -1.202   5.424  -5.699  -0.043

   4.212  -4.646   0.435   0.267  -1.636   0.924   4.094  -1.707   0.921   0.140

  -0.649   0.781  -0.746  -0.579  -1.172   0.508  -1.662  -0.721  -0.973  -0.872

   0.341   0.570  -0.470   0.629   0.697  -0.669   0.596   0.902  -0.456   0.327

   1.820  -1.097   0.163   1.165  -0.292   0.346   2.163  -0.939   0.177
       HoF         ACTUAL,  PREDICTED ENERGY CHANGE, RATIO
     4.4434954    -0.2529598          -0.1751076    1.4445961
     STEPSIZE USED IS  0.06362
 CALCULATED STEP
     0.007392 -0.018420 -0.013759 -0.012799 -0.020773 -0.024579  0.003874  0.019015
     0.012850  0.002115 -0.002661  0.017291 -0.001399  0.010786  0.021753  0.001581
     0.002885  0.006289  0.001097  0.006038  0.006668 -0.002658  0.010621 -0.004299
     0.001110  0.011259 -0.004339  0.000949  0.000054  0.010565  0.000045  0.010652
     0.006777  0.001431  0.001690  0.003982  0.000520  0.002985  0.005744  0.001092
     0.000004 -0.004004  0.001665  0.001914 -0.004518  0.000372 -0.000278 -0.001044
     0.000834 -0.003150 -0.000718  0.000583  0.000006 -0.000827  0.001200 -0.002977
    -0.000623
     NEW TRUST RADIUS =  0.28284
*REMARK   3 IPH = Phenol res:    1
 PM7 CHARGE=0 EF NOXYZ PRNT=2 PDBOUT COMPFG GRAPHF
 65036

  S(HETATM    1  S1  IPH A   1)   0.01782144 +1   -0.0643231 +1   -0.1133461 +1
  S(HETATM    2  S2  IPH A   1)   2.13518578 +1  -12.8281546 +1    1.3967830 +1     1     0     0
  O(HETATM    3  O   IPH A   1)   1.47182086 +1  112.6248332 +1    5.2027404 +1     1     2     0
  C(HETATM    4  C1  IPH A   1)   1.85498489 +1   95.7319001 +1 -109.1209633 +1     1     2     3
  C(HETATM    5  C2  IPH A   1)   1.86108499 +1  101.0759728 +1  -93.1619244 +1     2     1     3
  C(HETATM    6  C3  IPH A   1)   1.49361447 +1  106.2066506 +1  -78.9292438 +1     4     1     2
  C(HETATM    7  C4  IPH A   1)   1.49463856 +1  104.0574901 +1 -179.9082987 +1     5     2     1
  C(HETATM    8  C5  IPH A   1)   1.33373888 +1  122.0760637 +1  121.9567027 +1     6     4     1
  C(HETATM    9  C6  IPH A   1)   1.33559692 +1  122.0141226 +1  121.2912695 +1     7     5     2
  H(HETATM   10 1H1  IPH A   1)   1.10839800 +1  107.6613992 +1  161.6576996 +1     4     1     2
  H(HETATM   11 2H1  IPH A   1)   1.10252151 +1  113.0065679 +1   45.7212397 +1     4     1     2
  H(HETATM   12 1H2  IPH A   1)   1.10444321 +1  109.9110885 +1  -58.7480524 +1     5     2     1
  H(HETATM   13 2H2  IPH A   1)   1.10500246 +1  110.2322280 +1   60.7039082 +1     5     2     1
  H(HETATM   14  H3  IPH A   1)   1.09124306 +1  116.0484216 +1  -59.3641486 +1     6     4     1
  H(HETATM   15  H4  IPH A   1)   1.09309677 +1  115.8722357 +1  -59.7181521 +1     7     5     2
  H(HETATM   16 1H5  IPH A   1)   1.08020468 +1  123.4392780 +1 -179.7944849 +1     8     6     4
  H(HETATM   17 2H5  IPH A   1)   1.08335295 +1  123.5960554 +1   -0.5185150 +1     8     6     4
  H(HETATM   18 1H6  IPH A   1)   1.08084879 +1  123.2959807 +1 -179.9689178 +1     9     7     5
  H(HETATM   19 2H6  IPH A   1)   1.08191317 +1  123.7101891 +1   -0.4782619 +1     9     7     5

 XPARAM 
  1  1    0.0178  1  2   -0.0643  1  3   -0.1133  2  1    2.1352  2  2   -0.2239
  2  3    0.0244  3  1    1.4718  3  2    1.9657  3  3    0.0908  4  1    1.8550
  4  2    1.6708  4  3    4.3787  5  1    1.8611  5  2    1.7641  5  3    4.6572
  6  1    1.4936  6  2    1.8537  6  3    4.9056  7  1    1.4946  7  2    1.8161
  7  3    3.1432  8  1    1.3337  8  2    2.1306  8  3    2.1285  9  1    1.3356
  9  2    2.1295  9  3    2.1169 10  1    1.1084 10  2    1.8790 10  3    2.8215
 11  1    1.1025 11  2    1.9723 11  3    0.7980 12  1    1.1044 12  2    1.9183
 12  3    5.2578 13  1    1.1050 13  2    1.9239 13  3    1.0595 14  1    1.0912
 14  2    2.0254 14  3    5.2471 15  1    1.0931 15  2    2.0224 15  3    5.2409
 16  1    1.0802 16  2    2.1544 16  3    3.1452 17  1    1.0834 17  2    2.1572
 17  3    6.2741 18  1    1.0808 18  2    2.1519 18  3    3.1421 19  1    1.0819
 19  2    2.1592 19  3    6.2748
 grad
      -0.00000   -0.00000   -0.00000    5.36688    0.00000    0.00000    3.80965    1.97601
       0.00000    2.65036   -2.50659    0.10310    4.41671   -4.09346   -1.20188    5.42391
      -5.69852   -0.04314    4.21154   -4.64610    0.43505    0.26714   -1.63609    0.92356
       4.09414   -1.70691    0.92087    0.14029   -0.64869    0.78142   -0.74637   -0.57945
      -1.17193    0.50827   -1.66158   -0.72095   -0.97250   -0.87157    0.34084    0.57016
      -0.47041    0.62933    0.69665   -0.66937    0.59596    0.90182   -0.45591    0.32700
       1.82046   -1.09671    0.16267    1.16464   -0.29155    0.34559    2.16339   -0.93871
       0.17708
 CYCLE:     7 TIME:   0.009 TIME LEFT:  2.00D  GRAD.:    15.733 HEAT:  4.443495

          HESSIAN HAS  0 NEGATIVE EIGENVALUE(S)
  MIN SEARCH, CORRECT HESSIAN, TRYING PURE NR STEP
 LAMBDA THAT MINIMIZES ALONG ALL MODES =        0.000000000
 PURE NR-STEP HAS LENGTH   0.08025

  HEAT OF FORMATION        4.2504305525726522    
 PARAMETERS        0.029  -0.083  -0.128   2.119  -0.246  -0.013   1.474   1.977
   0.109   1.858   1.666   4.398   1.859   1.777   4.690   1.494   1.863   4.916

   1.494   1.828   3.149   1.337   2.141   2.123   1.334   2.141   2.112   1.110

   1.879   2.830   1.104   1.983   0.813   1.107   1.921   5.268   1.107   1.928

   1.065   1.093   2.024   5.241   1.095   2.023   5.234   1.081   2.154   3.144

   1.084   2.154   6.274   1.081   2.151   3.141   1.082   2.155   6.275
 GRADIENT         -0.000  -0.000  -0.000   1.856   0.000   0.000   5.104   2.767
   0.000   4.022  -2.190   2.309   4.747  -3.209  -0.779   6.630  -4.068   0.418

   4.912  -2.824   0.151   5.594  -0.084   0.925   1.259   0.455   1.117   0.964

   0.202   0.505   0.121   1.218  -0.971   1.476  -0.892  -0.556  -0.035  -0.065

   0.516   1.529   0.011   0.481   1.311   0.536   0.425   1.600  -0.446   0.275

   2.287  -1.372   0.193   1.314  -0.706   0.333   2.085  -1.539   0.265
       HoF         ACTUAL,  PREDICTED ENERGY CHANGE, RATIO
     4.2504306    -0.1930648          -0.1648876    1.1708872
     STEPSIZE USED IS  0.08025
 CALCULATED STEP
     0.011295 -0.018626 -0.014884 -0.016002 -0.022532 -0.037575  0.002016  0.011620
     0.018137  0.003078 -0.004477  0.019812 -0.002410  0.012718  0.033097 -0.000110
     0.009405  0.010094 -0.000495  0.012139  0.006284  0.002837  0.010297 -0.005749
    -0.001500  0.011241 -0.005406  0.001776 -0.000158  0.008056  0.001723  0.010841
     0.015441  0.002246  0.003183  0.010311  0.002401  0.004266  0.005618  0.001983
    -0.001631 -0.006466  0.002072  0.000830 -0.006742  0.000556 -0.000668 -0.001515
     0.000452 -0.003213 -0.000195  0.000255 -0.001121 -0.001473  0.000219 -0.003670
    -0.000104
     NEW TRUST RADIUS =  0.28284
*REMARK   3 IPH = Phenol res:    1
 PM7 CHARGE=0 EF NOXYZ PRNT=2 PDBOUT COMPFG GRAPHF
 65036

  S(HETATM    1  S1  IPH A   1)   0.02911598 +1   -0.0829486 +1   -0.1282301 +1
  S(HETATM    2  S2  IPH A   1)   2.11918332 +1  -14.1191587 +1   -0.7560886 +1     1     0     0
  O(HETATM    3  O   IPH A   1)   1.47383698 +1  113.2906349 +1    6.2419189 +1     1     2     0
  C(HETATM    4  C1  IPH A   1)   1.85806297 +1   95.4753921 +1 -107.9858448 +1     1     2     3
  C(HETATM    5  C2  IPH A   1)   1.85867477 +1  101.8046727 +1  -91.2656185 +1     2     1     3
  C(HETATM    6  C3  IPH A   1)   1.49350474 +1  106.7454960 +1  -78.3508866 +1     4     1     2
  C(HETATM    7  C4  IPH A   1)   1.49414402 +1  104.7529870 +1 -179.5482805 +1     5     2     1
  C(HETATM    8  C5  IPH A   1)   1.33657638 +1  122.6660582 +1  121.6272853 +1     6     4     1
  C(HETATM    9  C6  IPH A   1)   1.33409715 +1  122.6581595 +1  120.9815283 +1     7     5     2
  H(HETATM   10 1H1  IPH A   1)   1.11017393 +1  107.6523185 +1  162.1192695 +1     4     1     2
  H(HETATM   11 2H1  IPH A   1)   1.10424433 +1  113.6277346 +1   46.6059578 +1     4     1     2
  H(HETATM   12 1H2  IPH A   1)   1.10668968 +1  110.0934662 +1  -58.1572863 +1     5     2     1
  H(HETATM   13 2H2  IPH A   1)   1.10740305 +1  110.4766257 +1   61.0257930 +1     5     2     1
  H(HETATM   14  H3  IPH A   1)   1.09322637 +1  115.9550007 +1  -59.7346487 +1     6     4     1
  H(HETATM   15  H4  IPH A   1)   1.09516843 +1  115.9198025 +1  -60.1044658 +1     7     5     2
  H(HETATM   16 1H5  IPH A   1)   1.08076054 +1  123.4009796 +1 -179.8812820 +1     8     6     4
  H(HETATM   17 2H5  IPH A   1)   1.08380463 +1  123.4119686 +1   -0.5296735 +1     8     6     4
  H(HETATM   18 1H6  IPH A   1)   1.08110332 +1  123.2317398 +1  179.9466642 +1     9     7     5
  H(HETATM   19 2H6  IPH A   1)   1.08213253 +1  123.4999283 +1   -0.4842492 +1     9     7     5

 XPARAM 
  1  1    0.0291  1  2   -0.0829  1  3   -0.1282  2  1    2.1192  2  2   -0.2464
  2  3   -0.0132  3  1    1.4738  3  2    1.9773  3  3    0.1089  4  1    1.8581
  4  2    1.6664  4  3    4.3985  5  1    1.8587  5  2    1.7768  5  3    4.6903
  6  1    1.4935  6  2    1.8631  6  3    4.9157  7  1    1.4941  7  2    1.8283
  7  3    3.1495  8  1    1.3366  8  2    2.1409  8  3    2.1228  9  1    1.3341
  9  2    2.1408  9  3    2.1115 10  1    1.1102 10  2    1.8789 10  3    2.8295
 11  1    1.1042 11  2    1.9832 11  3    0.8134 12  1    1.1067 12  2    1.9215
 12  3    5.2681 13  1    1.1074 13  2    1.9282 13  3    1.0651 14  1    1.0932
 14  2    2.0238 14  3    5.2406 15  1    1.0952 15  2    2.0232 15  3    5.2342
 16  1    1.0808 16  2    2.1538 16  3    3.1437 17  1    1.0838 17  2    2.1539
 17  3    6.2739 18  1    1.0811 18  2    2.1508 18  3    3.1407 19  1    1.0821
 19  2    2.1555 19  3    6.2747
 grad
      -0.00000   -0.00000   -0.00000    1.85598    0.00000    0.00000    5.10431    2.76723
       0.00000    4.02163   -2.18992    2.30910    4.74695   -3.20923   -0.77875    6.62992
      -4.06800    0.41790    4.91237   -2.82405    0.15100    5.59386   -0.08379    0.92531
       1.25891    0.45507    1.11740    0.96421    0.20220    0.50467    0.12094    1.21825
      -0.97104    1.47632   -0.89203   -0.55583   -0.03464   -0.06480    0.51628    1.52882
       0.01060    0.48110    1.31065    0.53614    0.42453    1.60026   -0.44557    0.27460
       2.28716   -1.37204    0.19257    1.31362   -0.70618    0.33310    2.08453   -1.53878
       0.26531
 CYCLE:     8 TIME:   0.009 TIME LEFT:  2.00D  GRAD.:    15.999 HEAT:  4.250431

          HESSIAN HAS  0 NEGATIVE EIGENVALUE(S)
  MIN SEARCH, CORRECT HESSIAN, TRYING PURE NR STEP
 LAMBDA THAT MINIMIZES ALONG ALL MODES =        0.000000000
 PURE NR-STEP HAS LENGTH   0.03774

  HEAT OF FORMATION        4.1200631541360053    
 PARAMETERS        0.035  -0.084  -0.129   2.114  -0.252  -0.034   1.473   1.969
   0.119   1.859   1.664   4.399   1.857   1.781   4.707   1.491   1.871   4.920

   1.493   1.837   3.154   1.335   2.142   2.121   1.336   2.142   2.108   1.111

   1.878   2.830   1.106   1.983   0.825   1.108   1.923   5.276   1.110   1.930

   1.065   1.094   2.022   5.237   1.096   2.021   5.231   1.081   2.153   3.143

   1.083   2.153   6.275   1.081   2.150   3.140   1.082   2.155   6.275
 GRADIENT         -0.000  -0.000  -0.000   0.253   0.000   0.000   4.139   1.730
   0.000   4.845  -2.566   1.767   4.807  -2.919  -1.205   5.385  -3.431   0.020

   4.768  -1.898   0.244   2.507   0.092   1.000   5.581   0.407   0.921   1.236

   0.544   0.118   0.948   1.671  -0.443   1.736  -0.522  -0.360   0.929   0.441

   0.133   1.559  -0.066   0.338   1.960   0.173   0.331   1.346  -0.718   0.275

   1.739  -1.576   0.271   1.503  -0.614   0.338   1.939  -1.452   0.281
       HoF         ACTUAL,  PREDICTED ENERGY CHANGE, RATIO
     4.1200632    -0.1303674          -0.0801102    1.6273511
     STEPSIZE USED IS  0.03774
 CALCULATED STEP
     0.006190 -0.000997 -0.001171 -0.005046 -0.005148 -0.020365 -0.000699 -0.008143
     0.010292  0.001092 -0.002292  0.000223 -0.001524  0.003690  0.016327 -0.002204
     0.008002  0.004028 -0.000914  0.008667  0.004198 -0.001558  0.001573 -0.002083
     0.002352  0.000743 -0.003187  0.000930 -0.000888  0.000190  0.001859  0.000240
     0.011884  0.000938  0.001478  0.007928  0.002239  0.001423 -0.000141  0.000508
    -0.001385 -0.003350  0.000837 -0.001688 -0.003230 -0.000199 -0.001059 -0.000462
    -0.000739 -0.000543  0.000718  0.000035 -0.000531 -0.000735 -0.000561 -0.000306
     0.000314
     NEW TRUST RADIUS =  0.28284
*REMARK   3 IPH = Phenol res:    1
 PM7 CHARGE=0 EF NOXYZ PRNT=2 PDBOUT COMPFG GRAPHF
 65036

  S(HETATM    1  S1  IPH A   1)   0.03530583 +1   -0.0839460 +1   -0.1294007 +1
  S(HETATM    2  S2  IPH A   1)   2.11413706 +1  -14.4141110 +1   -1.9229321 +1     1     0     0
  O(HETATM    3  O   IPH A   1)   1.47313835 +1  112.8240789 +1    6.8316202 +1     1     2     0
  C(HETATM    4  C1  IPH A   1)   1.85915483 +1   95.3440717 +1 -107.9730500 +1     1     2     3
  C(HETATM    5  C2  IPH A   1)   1.85715120 +1  102.0160937 +1  -90.3301677 +1     2     1     3
  C(HETATM    6  C3  IPH A   1)   1.49130077 +1  107.2039729 +1  -78.1201131 +1     4     1     2
  C(HETATM    7  C4  IPH A   1)   1.49323019 +1  105.2495843 +1 -179.3077243 +1     5     2     1
  C(HETATM    8  C5  IPH A   1)   1.33501793 +1  122.7561624 +1  121.5079136 +1     6     4     1
  C(HETATM    9  C6  IPH A   1)   1.33644902 +1  122.7007038 +1  120.7989521 +1     7     5     2
  H(HETATM   10 1H1  IPH A   1)   1.11110379 +1  107.6014449 +1  162.1301361 +1     4     1     2
  H(HETATM   11 2H1  IPH A   1)   1.10610366 +1  113.6414722 +1   47.2868858 +1     4     1     2
  H(HETATM   12 1H2  IPH A   1)   1.10762757 +1  110.1781392 +1  -57.7030203 +1     5     2     1
  H(HETATM   13 2H2  IPH A   1)   1.10964205 +1  110.5581552 +1   61.0177053 +1     5     2     1
  H(HETATM   14  H3  IPH A   1)   1.09373477 +1  115.8756598 +1  -59.9266034 +1     6     4     1
  H(HETATM   15  H4  IPH A   1)   1.09600572 +1  115.8230920 +1  -60.2895089 +1     7     5     2
  H(HETATM   16 1H5  IPH A   1)   1.08056155 +1  123.3403261 +1 -179.9077318 +1     8     6     4
  H(HETATM   17 2H5  IPH A   1)   1.08306533 +1  123.3808651 +1   -0.4885393 +1     8     6     4
  H(HETATM   18 1H6  IPH A   1)   1.08113852 +1  123.2012887 +1  179.9045375 +1     9     7     5
  H(HETATM   19 2H6  IPH A   1)   1.08157182 +1  123.4823794 +1   -0.4662424 +1     9     7     5

 XPARAM 
  1  1    0.0353  1  2   -0.0839  1  3   -0.1294  2  1    2.1141  2  2   -0.2516
  2  3   -0.0336  3  1    1.4731  3  2    1.9692  3  3    0.1192  4  1    1.8592
  4  2    1.6641  4  3    4.3987  5  1    1.8572  5  2    1.7805  5  3    4.7066
  6  1    1.4913  6  2    1.8711  6  3    4.9197  7  1    1.4932  7  2    1.8370
  7  3    3.1537  8  1    1.3350  8  2    2.1425  8  3    2.1207  9  1    1.3364
  9  2    2.1415  9  3    2.1083 10  1    1.1111 10  2    1.8780 10  3    2.8297
 11  1    1.1061 11  2    1.9834 11  3    0.8253 12  1    1.1076 12  2    1.9230
 12  3    5.2761 13  1    1.1096 13  2    1.9296 13  3    1.0650 14  1    1.0937
 14  2    2.0224 14  3    5.2373 15  1    1.0960 15  2    2.0215 15  3    5.2309
 16  1    1.0806 16  2    2.1527 16  3    3.1432 17  1    1.0831 17  2    2.1534
 17  3    6.2747 18  1    1.0811 18  2    2.1503 18  3    3.1399 19  1    1.0816
 19  2    2.1552 19  3    6.2750
 grad
      -0.00000   -0.00000   -0.00000    0.25286    0.00000    0.00000    4.13891    1.72958
       0.00000    4.84525   -2.56600    1.76724    4.80656   -2.91853   -1.20452    5.38468
      -3.43097    0.01997    4.76782   -1.89806    0.24390    2.50695    0.09233    1.00004
       5.58107    0.40660    0.92137    1.23565    0.54430    0.11762    0.94752    1.67119
      -0.44270    1.73581   -0.52156   -0.36026    0.92932    0.44139    0.13338    1.55947
      -0.06554    0.33785    1.96030    0.17296    0.33126    1.34622   -0.71760    0.27479
       1.73915   -1.57605    0.27073    1.50256   -0.61377    0.33792    1.93888   -1.45153
       0.28133
 CYCLE:     9 TIME:   0.008 TIME LEFT:  2.00D  GRAD.:    15.049 HEAT:  4.120063

          HESSIAN HAS  0 NEGATIVE EIGENVALUE(S)
  MIN SEARCH, CORRECT HESSIAN, TRYING PURE NR STEP
 LAMBDA THAT MINIMIZES ALONG ALL MODES =        0.000000000
 PURE NR-STEP HAS LENGTH   0.12418

  HEAT OF FORMATION        3.9741334761711187    
 PARAMETERS        0.064  -0.083  -0.132   2.095  -0.283  -0.137   1.471   1.937
   0.170   1.862   1.658   4.390   1.851   1.801   4.797   1.484   1.908   4.945

   1.489   1.873   3.173   1.335   2.147   2.106   1.335   2.142   2.092   1.115

   1.870   2.837   1.112   1.978   0.878   1.111   1.928   5.314   1.117   1.932

   1.069   1.096   2.015   5.222   1.098   2.013   5.216   1.080   2.151   3.140

   1.081   2.155   6.276   1.081   2.149   3.135   1.079   2.157   6.275
 GRADIENT         -0.000  -0.000  -0.000  -6.365   0.000   0.000   0.856  -2.638
   0.000   7.552  -3.960   0.119   4.736  -1.714  -0.623   1.620   0.491  -0.042

   1.725   2.664   0.574   1.687  -0.225   0.994   2.203  -0.521   1.021   2.248

   1.210  -1.557   3.269   2.753   1.460   2.425   1.223   0.665   3.755   2.031

  -0.916   2.356  -0.944   0.020   2.777  -0.896   0.182   0.870  -0.721   0.199

   0.532  -1.439   0.434   0.856  -0.671   0.211   0.375  -1.457   0.443
       HoF         ACTUAL,  PREDICTED ENERGY CHANGE, RATIO
     3.9741335    -0.1459297          -0.1995852    0.7311650
     STEPSIZE USED IS  0.12418
 CALCULATED STEP
     0.029084  0.000450 -0.002645 -0.019544 -0.031293 -0.103105 -0.002469 -0.032163
     0.050969  0.002752 -0.006180 -0.009013 -0.006528  0.020195  0.090490 -0.007533
     0.037350  0.025434 -0.004519  0.036077  0.019371 -0.000355  0.004721 -0.014889
    -0.001928  0.000909 -0.016254  0.003429 -0.008180  0.006847  0.006110 -0.005175
     0.052652  0.003235  0.005280  0.037634  0.007664  0.002711  0.004399  0.002106
    -0.007182 -0.015168  0.001758 -0.007995 -0.015192 -0.000574 -0.001394 -0.002935
    -0.002144  0.001988  0.001310 -0.000619 -0.000780 -0.004726 -0.002411  0.001528
     0.000100
     NEW TRUST RADIUS =  0.28284
*REMARK   3 IPH = Phenol res:    1
 PM7 CHARGE=0 EF NOXYZ PRNT=2 PDBOUT COMPFG GRAPHF
 65036

  S(HETATM    1  S1  IPH A   1)   0.06438950 +1   -0.0834957 +1   -0.1320454 +1
  S(HETATM    2  S2  IPH A   1)   2.09459323 +1  -16.2070768 +1   -7.8303874 +1     1     0     0
  O(HETATM    3  O   IPH A   1)   1.47066910 +1  110.9812848 +1    9.7519321 +1     1     2     0
  C(HETATM    4  C1  IPH A   1)   1.86190674 +1   94.9899614 +1 -108.4894718 +1     1     2     3
  C(HETATM    5  C2  IPH A   1)   1.85062341 +1  103.1732064 +1  -85.1454718 +1     2     1     3
  C(HETATM    6  C3  IPH A   1)   1.48376792 +1  109.3439808 +1  -76.6628776 +1     4     1     2
  C(HETATM    7  C4  IPH A   1)   1.48871114 +1  107.3166525 +1 -178.1978673 +1     5     2     1
  C(HETATM    8  C5  IPH A   1)   1.33466291 +1  123.0266583 +1  120.6548398 +1     6     4     1
  C(HETATM    9  C6  IPH A   1)   1.33452077 +1  122.7528042 +1  119.8676722 +1     7     5     2
  H(HETATM   10 1H1  IPH A   1)   1.11453299 +1  107.1327480 +1  162.5224497 +1     4     1     2
  H(HETATM   11 2H1  IPH A   1)   1.11221349 +1  113.3449926 +1   50.3036223 +1     4     1     2
  H(HETATM   12 1H2  IPH A   1)   1.11086304 +1  110.4806655 +1  -55.5467312 +1     5     2     1
  H(HETATM   13 2H2  IPH A   1)   1.11730650 +1  110.7134615 +1   61.2697285 +1     5     2     1
  H(HETATM   14  H3  IPH A   1)   1.09584038 +1  115.4641786 +1  -60.7956903 +1     6     4     1
  H(HETATM   15  H4  IPH A   1)   1.09776402 +1  115.3650211 +1  -61.1599677 +1     7     5     2
  H(HETATM   16 1H5  IPH A   1)   1.07998754 +1  123.2604609 +1  179.9241175 +1     8     6     4
  H(HETATM   17 2H5  IPH A   1)   1.08092183 +1  123.4947449 +1   -0.4134594 +1     8     6     4
  H(HETATM   18 1H6  IPH A   1)   1.08051913 +1  123.1565768 +1  179.6337477 +1     9     7     5
  H(HETATM   19 2H6  IPH A   1)   1.07916072 +1  123.5699147 +1   -0.4604963 +1     9     7     5

 XPARAM 
  1  1    0.0644  1  2   -0.0835  1  3   -0.1320  2  1    2.0946  2  2   -0.2829
  2  3   -0.1367  3  1    1.4707  3  2    1.9370  3  3    0.1702  4  1    1.8619
  4  2    1.6579  4  3    4.3897  5  1    1.8506  5  2    1.8007  5  3    4.7971
  6  1    1.4838  6  2    1.9084  6  3    4.9452  7  1    1.4887  7  2    1.8730
  7  3    3.1730  8  1    1.3347  8  2    2.1472  8  3    2.1058  9  1    1.3345
  9  2    2.1424  9  3    2.0921 10  1    1.1145 10  2    1.8698 10  3    2.8366
 11  1    1.1122 11  2    1.9782 11  3    0.8780 12  1    1.1109 12  2    1.9283
 12  3    5.3137 13  1    1.1173 13  2    1.9323 13  3    1.0694 14  1    1.0958
 14  2    2.0152 14  3    5.2221 15  1    1.0978 15  2    2.0135 15  3    5.2157
 16  1    1.0800 16  2    2.1513 16  3    3.1403 17  1    1.0809 17  2    2.1554
 17  3    6.2760 18  1    1.0805 18  2    2.1495 18  3    3.1352 19  1    1.0792
 19  2    2.1567 19  3    6.2751
 grad
      -0.00000   -0.00000   -0.00001   -6.36462    0.00000    0.00000    0.85635   -2.63796
       0.00000    7.55209   -3.95986    0.11884    4.73597   -1.71431   -0.62331    1.62002
       0.49079   -0.04172    1.72539    2.66400    0.57401    1.68723   -0.22459    0.99401
       2.20305   -0.52086    1.02148    2.24799    1.21039   -1.55733    3.26852    2.75279
       1.46039    2.42473    1.22308    0.66548    3.75516    2.03110   -0.91569    2.35586
      -0.94362    0.01962    2.77718   -0.89599    0.18210    0.87014   -0.72085    0.19873
       0.53159   -1.43927    0.43393    0.85635   -0.67138    0.21088    0.37536   -1.45741
       0.44342
 CYCLE:    10 TIME:   0.010 TIME LEFT:  2.00D  GRAD.:    15.772 HEAT:  3.974133

          HESSIAN HAS  0 NEGATIVE EIGENVALUE(S)
  MIN SEARCH, CORRECT HESSIAN, TRYING PURE NR STEP
 LAMBDA THAT MINIMIZES ALONG ALL MODES =        0.000000000
 PURE NR-STEP HAS LENGTH   0.05015

  HEAT OF FORMATION        3.8206500282103661    
 PARAMETERS        0.056  -0.079  -0.127   2.104  -0.277  -0.112   1.470   1.948
   0.159   1.859   1.663   4.384   1.852   1.797   4.777   1.486   1.897   4.940

   1.490   1.859   3.168   1.334   2.144   2.108   1.336   2.140   2.094   1.113

   1.870   2.839   1.109   1.974   0.862   1.109   1.925   5.304   1.114   1.929

   1.071   1.094   2.017   5.226   1.096   2.015   5.220   1.080   2.153   3.141

   1.082   2.158   6.275   1.081   2.151   3.136   1.080   2.159   6.274
 GRADIENT         -0.000  -0.000  -0.000  -3.337   0.000   0.000   0.786  -0.974
   0.000   5.586  -3.230   0.002   4.210  -1.962  -0.917   2.580  -0.801  -0.021

   2.564   0.827   0.280   1.366  -0.495   0.889   4.690  -0.656   0.950   1.441

   0.467  -0.761   1.828   1.545   0.655   1.861   0.319   0.482   2.099   1.072

  -0.474   1.708  -0.821   0.234   2.095  -0.948   0.385   0.767  -0.428   0.216

   0.908  -1.093   0.326   0.960  -0.274   0.206   1.026  -0.944   0.328
       HoF         ACTUAL,  PREDICTED ENERGY CHANGE, RATIO
     3.8206500    -0.1534834          -0.1239305    1.2384643
     STEPSIZE USED IS  0.05015
 CALCULATED STEP
    -0.008559  0.004810  0.005235  0.009209  0.005818  0.024777 -0.000662  0.010995
    -0.011154 -0.003334  0.005401 -0.006136  0.001642 -0.004108 -0.019989  0.002482
    -0.011524 -0.005258  0.001534 -0.014414 -0.005304 -0.000336 -0.003242  0.002312
     0.001224 -0.002374  0.002255 -0.001869 -0.000161  0.002343 -0.003154 -0.003813
    -0.015614 -0.001859 -0.003182 -0.009897 -0.003796 -0.003561  0.001301 -0.001427
     0.001857  0.004231 -0.001541  0.001408  0.003921 -0.000088  0.001839  0.000776
     0.000691  0.002130 -0.001094  0.000034  0.001789  0.001041  0.000896  0.002408
    -0.000952
     NEW TRUST RADIUS =  0.28284
*REMARK   3 IPH = Phenol res:    1
 PM7 CHARGE=0 EF NOXYZ PRNT=2 PDBOUT COMPFG GRAPHF
 65036

  S(HETATM    1  S1  IPH A   1)   0.05583019 +1   -0.0786854 +1   -0.1268102 +1
  S(HETATM    2  S2  IPH A   1)   2.10380197 +1  -15.8737364 +1   -6.4107435 +1     1     0     0
  O(HETATM    3  O   IPH A   1)   1.47000732 +1  111.6112473 +1    9.1128379 +1     1     2     0
  C(HETATM    4  C1  IPH A   1)   1.85857234 +1   95.2993940 +1 -108.8410232 +1     1     2     3
  C(HETATM    5  C2  IPH A   1)   1.85226500 +1  102.9378487 +1  -86.2907763 +1     2     1     3
  C(HETATM    6  C3  IPH A   1)   1.48624980 +1  108.6836918 +1  -76.9641604 +1     4     1     2
  C(HETATM    7  C4  IPH A   1)   1.49024515 +1  106.4908178 +1 -178.5017435 +1     5     2     1
  C(HETATM    8  C5  IPH A   1)   1.33432715 +1  122.8409040 +1  120.7872829 +1     6     4     1
  C(HETATM    9  C6  IPH A   1)   1.33574478 +1  122.6167854 +1  119.9968794 +1     7     5     2
  H(HETATM   10 1H1  IPH A   1)   1.11266394 +1  107.1234967 +1  162.6566666 +1     4     1     2
  H(HETATM   11 2H1  IPH A   1)   1.10905966 +1  113.1265259 +1   49.4089903 +1     4     1     2
  H(HETATM   12 1H2  IPH A   1)   1.10900419 +1  110.2983423 +1  -56.1138100 +1     5     2     1
  H(HETATM   13 2H2  IPH A   1)   1.11351017 +1  110.5094525 +1   61.3442581 +1     5     2     1
  H(HETATM   14  H3  IPH A   1)   1.09441378 +1  115.5705622 +1  -60.5532463 +1     6     4     1
  H(HETATM   15  H4  IPH A   1)   1.09622316 +1  115.4456895 +1  -60.9353218 +1     7     5     2
  H(HETATM   16 1H5  IPH A   1)   1.07989925 +1  123.3658410 +1  179.9685759 +1     8     6     4
  H(HETATM   17 2H5  IPH A   1)   1.08161332 +1  123.6168109 +1   -0.4761531 +1     8     6     4
  H(HETATM   18 1H6  IPH A   1)   1.08055353 +1  123.2591011 +1  179.6934084 +1     9     7     5
  H(HETATM   19 2H6  IPH A   1)   1.08005689 +1  123.7079032 +1   -0.5150665 +1     9     7     5

 XPARAM 
  1  1    0.0558  1  2   -0.0787  1  3   -0.1268  2  1    2.1038  2  2   -0.2770
  2  3   -0.1119  3  1    1.4700  3  2    1.9480  3  3    0.1590  4  1    1.8586
  4  2    1.6633  4  3    4.3836  5  1    1.8523  5  2    1.7966  5  3    4.7771
  6  1    1.4862  6  2    1.8969  6  3    4.9399  7  1    1.4902  7  2    1.8586
  7  3    3.1677  8  1    1.3343  8  2    2.1440  8  3    2.1081  9  1    1.3357
  9  2    2.1401  9  3    2.0943 10  1    1.1127 10  2    1.8697 10  3    2.8389
 11  1    1.1091 11  2    1.9744 11  3    0.8623 12  1    1.1090 12  2    1.9251
 12  3    5.3038 13  1    1.1135 13  2    1.9288 13  3    1.0707 14  1    1.0944
 14  2    2.0171 14  3    5.2263 15  1    1.0962 15  2    2.0149 15  3    5.2197
 16  1    1.0799 16  2    2.1531 16  3    3.1410 17  1    1.0816 17  2    2.1575
 17  3    6.2749 18  1    1.0806 18  2    2.1513 18  3    3.1362 19  1    1.0801
 19  2    2.1591 19  3    6.2742
 grad
      -0.00000   -0.00000   -0.00001   -3.33680    0.00000    0.00000    0.78570   -0.97399
       0.00000    5.58578   -3.22972    0.00153    4.21007   -1.96213   -0.91717    2.58016
      -0.80074   -0.02119    2.56440    0.82698    0.28027    1.36647   -0.49468    0.88869
       4.68958   -0.65612    0.95028    1.44106    0.46662   -0.76079    1.82750    1.54512
       0.65531    1.86099    0.31948    0.48155    2.09863    1.07177   -0.47382    1.70786
      -0.82105    0.23376    2.09477   -0.94766    0.38484    0.76694   -0.42815    0.21583
       0.90820   -1.09350    0.32618    0.96007   -0.27373    0.20563    1.02580   -0.94368
       0.32821
 CYCLE:    11 TIME:   0.008 TIME LEFT:  2.00D  GRAD.:    12.302 HEAT:  3.820650

          HESSIAN HAS  0 NEGATIVE EIGENVALUE(S)
  MIN SEARCH, CORRECT HESSIAN, TRYING PURE NR STEP
 LAMBDA THAT MINIMIZES ALONG ALL MODES =        0.000000000
 PURE NR-STEP HAS LENGTH   0.03334

  HEAT OF FORMATION        3.6793157808278920    
 PARAMETERS        0.057  -0.071  -0.118   2.110  -0.290  -0.131   1.469   1.957
   0.170   1.853   1.673   4.371   1.851   1.803   4.798   1.488   1.894   4.946

   1.491   1.849   3.171   1.334   2.143   2.102   1.335   2.139   2.086   1.111

   1.865   2.852   1.106   1.965   0.862   1.107   1.922   5.304   1.110   1.923

   1.079   1.093   2.018   5.224   1.094   2.015   5.216   1.080   2.156   3.140

   1.082   2.163   6.273   1.080   2.154   3.135   1.081   2.164   6.272
 GRADIENT         -0.000  -0.000  -0.000  -1.171   0.000   0.000   0.310   0.417
   0.000   2.766  -2.067  -1.021   2.831  -1.029  -1.043   2.870  -1.463  -0.402

   2.308  -0.644   0.068   0.544  -0.424   0.626   3.820  -0.718   0.533   0.348

  -0.600   0.113   0.102  -0.143  -0.024   0.916  -0.741   0.231   0.238   0.110

  -0.083   0.772  -0.766   0.512   0.851  -1.057   0.742   0.455   0.087   0.195

   1.106  -0.321   0.175   0.704   0.250   0.179   1.336  -0.158   0.130
       HoF         ACTUAL,  PREDICTED ENERGY CHANGE, RATIO
     3.6793158    -0.1413342          -0.0753434    1.8758675
     STEPSIZE USED IS  0.03334
 CALCULATED STEP
     0.000823  0.007397  0.009061  0.006167 -0.013063 -0.019500 -0.001004  0.008910
     0.011242 -0.005706  0.009254 -0.012969 -0.000954  0.006625  0.021020  0.001347
    -0.002411  0.005798  0.000455 -0.009831  0.002941 -0.000717 -0.001227 -0.006480
    -0.000687 -0.001270 -0.008740 -0.001759 -0.004941  0.013024 -0.003164 -0.009204
     0.000015 -0.002044 -0.003352  0.000246 -0.003592 -0.005840  0.007942 -0.001632
     0.000426 -0.002520 -0.002068 -0.000010 -0.004136 -0.000268  0.002578 -0.000596
     0.000384  0.005141 -0.002029 -0.000213  0.002625 -0.000762  0.000551  0.005102
    -0.002518
     NEW TRUST RADIUS =  0.28284
*REMARK   3 IPH = Phenol res:    1
 PM7 CHARGE=0 EF NOXYZ PRNT=2 PDBOUT COMPFG GRAPHF
 65036

  S(HETATM    1  S1  IPH A   1)   0.05665284 +1   -0.0712882 +1   -0.1177490 +1
  S(HETATM    2  S2  IPH A   1)   2.10996917 +1  -16.6222142 +1   -7.5280274 +1     1     0     0
  O(HETATM    3  O   IPH A   1)   1.46900297 +1  112.1217487 +1    9.7569670 +1     1     2     0
  C(HETATM    4  C1  IPH A   1)   1.85286587 +1   95.8295881 +1 -109.5840955 +1     1     2     3
  C(HETATM    5  C2  IPH A   1)   1.85131101 +1  103.3174217 +1  -85.0864090 +1     2     1     3
  C(HETATM    6  C3  IPH A   1)   1.48759686 +1  108.5455475 +1  -76.6319415 +1     4     1     2
  C(HETATM    7  C4  IPH A   1)   1.49070051 +1  105.9275418 +1 -178.3332615 +1     5     2     1
  C(HETATM    8  C5  IPH A   1)   1.33361056 +1  122.7706122 +1  120.4159854 +1     6     4     1
  C(HETATM    9  C6  IPH A   1)   1.33505764 +1  122.5440128 +1  119.4961119 +1     7     5     2
  H(HETATM   10 1H1  IPH A   1)   1.11090464 +1  106.8403941 +1  163.4028793 +1     4     1     2
  H(HETATM   11 2H1  IPH A   1)   1.10589560 +1  112.5991600 +1   49.4098342 +1     4     1     2
  H(HETATM   12 1H2  IPH A   1)   1.10696043 +1  110.1062887 +1  -56.0997387 +1     5     2     1
  H(HETATM   13 2H2  IPH A   1)   1.10991825 +1  110.1748301 +1   61.7993123 +1     5     2     1
  H(HETATM   14  H3  IPH A   1)   1.09278181 +1  115.5949574 +1  -60.6976325 +1     6     4     1
  H(HETATM   15  H4  IPH A   1)   1.09415556 +1  115.4451223 +1  -61.1722812 +1     7     5     2
  H(HETATM   16 1H5  IPH A   1)   1.07963085 +1  123.5135336 +1  179.9344251 +1     8     6     4
  H(HETATM   17 2H5  IPH A   1)   1.08199754 +1  123.9113897 +1   -0.5923885 +1     8     6     4
  H(HETATM   18 1H6  IPH A   1)   1.08034070 +1  123.4095151 +1  179.6497424 +1     9     7     5
  H(HETATM   19 2H6  IPH A   1)   1.08060792 +1  124.0002111 +1   -0.6593503 +1     9     7     5

 XPARAM 
  1  1    0.0567  1  2   -0.0713  1  3   -0.1177  2  1    2.1100  2  2   -0.2901
  2  3   -0.1314  3  1    1.4690  3  2    1.9569  3  3    0.1703  4  1    1.8529
  4  2    1.6725  4  3    4.3706  5  1    1.8513  5  2    1.8032  5  3    4.7981
  6  1    1.4876  6  2    1.8945  6  3    4.9457  7  1    1.4907  7  2    1.8488
  7  3    3.1707  8  1    1.3336  8  2    2.1428  8  3    2.1017  9  1    1.3351
  9  2    2.1388  9  3    2.0856 10  1    1.1109 10  2    1.8647 10  3    2.8519
 11  1    1.1059 11  2    1.9652 11  3    0.8624 12  1    1.1070 12  2    1.9217
 12  3    5.3041 13  1    1.1099 13  2    1.9229 13  3    1.0786 14  1    1.0928
 14  2    2.0175 14  3    5.2238 15  1    1.0942 15  2    2.0149 15  3    5.2155
 16  1    1.0796 16  2    2.1557 16  3    3.1404 17  1    1.0820 17  2    2.1627
 17  3    6.2728 18  1    1.0803 18  2    2.1539 18  3    3.1355 19  1    1.0806
 19  2    2.1642 19  3    6.2717
 grad
      -0.00000   -0.00000   -0.00001   -1.17136    0.00000    0.00000    0.30969    0.41676
       0.00000    2.76582   -2.06689   -1.02113    2.83057   -1.02888   -1.04287    2.86970
      -1.46295   -0.40249    2.30838   -0.64394    0.06759    0.54420   -0.42358    0.62633
       3.82032   -0.71817    0.53330    0.34809   -0.59992    0.11269    0.10233   -0.14263
      -0.02434    0.91631   -0.74147    0.23101    0.23758    0.10984   -0.08288    0.77174
      -0.76587    0.51190    0.85095   -1.05697    0.74232    0.45467    0.08702    0.19530
       1.10605   -0.32147    0.17452    0.70375    0.24995    0.17915    1.33577   -0.15848
       0.12980
 CYCLE:    12 TIME:   0.009 TIME LEFT:  2.00D  GRAD.:     8.199 HEAT:  3.679316

          HESSIAN HAS  0 NEGATIVE EIGENVALUE(S)
  MIN SEARCH, CORRECT HESSIAN, TRYING PURE NR STEP
 LAMBDA THAT MINIMIZES ALONG ALL MODES =        0.000000000
 PURE NR-STEP HAS LENGTH   0.08471

  HEAT OF FORMATION        3.5608427615588880    
 PARAMETERS        0.065  -0.067  -0.110   2.110  -0.311  -0.181   1.469   1.957
   0.193   1.848   1.680   4.367   1.848   1.813   4.843   1.487   1.902   4.960

   1.490   1.850   3.178   1.333   2.144   2.090   1.334   2.140   2.072   1.111

   1.860   2.865   1.105   1.958   0.876   1.106   1.921   5.313   1.109   1.919

   1.088   1.092   2.017   5.215   1.093   2.015   5.204   1.079   2.156   3.139

   1.082   2.166   6.271   1.080   2.155   3.133   1.080   2.168   6.269
 GRADIENT         -0.000  -0.000  -0.000  -1.166   0.000   0.000  -0.348   0.648
   0.000   0.869  -0.975  -1.122   1.418   0.015  -0.488   2.073  -0.891  -0.300

   1.411  -0.523  -0.147   0.012  -0.259   0.378   2.321  -0.428   0.496  -0.136

  -1.155   0.403  -0.793  -0.822  -0.317   0.347  -0.911   0.208  -0.641  -0.451

   0.259   0.214  -0.653   0.657   0.115  -0.933   0.893   0.187   0.365   0.116

   0.943   0.153   0.059   0.394   0.475   0.081   1.152   0.310   0.047
       HoF         ACTUAL,  PREDICTED ENERGY CHANGE, RATIO
     3.5608428    -0.1184730          -0.0721363    1.6423498
     STEPSIZE USED IS  0.08471
 CALCULATED STEP
     0.008103  0.004231  0.007698 -0.000302 -0.020802 -0.049228 -0.000495 -0.000339
     0.022962 -0.004395  0.007621 -0.003760 -0.003137  0.010262  0.044427 -0.000889
     0.008001  0.013904 -0.000867  0.001243  0.007064 -0.000354  0.001263 -0.011608
    -0.000857  0.001240 -0.013277 -0.000370 -0.004767  0.013194 -0.000937 -0.006987
     0.013239 -0.000769 -0.000316  0.008666 -0.001010 -0.004171  0.008947 -0.000714
    -0.000104 -0.008580 -0.000953  0.000086 -0.011288 -0.000228  0.000722 -0.001880
    -0.000299  0.003708 -0.001819 -0.000264  0.000838 -0.002342 -0.000241  0.003515
    -0.002264
     NEW TRUST RADIUS =  0.28284
*REMARK   3 IPH = Phenol res:    1
 PM7 CHARGE=0 EF NOXYZ PRNT=2 PDBOUT COMPFG GRAPHF
 65036

  S(HETATM    1  S1  IPH A   1)   0.06475585 +1   -0.0670574 +1   -0.1100514 +1
  S(HETATM    2  S2  IPH A   1)   2.10966764 +1  -17.8140827 +1  -10.3485585 +1     1     0     0
  O(HETATM    3  O   IPH A   1)   1.46850821 +1  112.1023454 +1   11.0725867 +1     1     2     0
  C(HETATM    4  C1  IPH A   1)   1.84847071 +1   96.2662373 +1 -109.7995004 +1     1     2     3
  C(HETATM    5  C2  IPH A   1)   1.84817396 +1  103.9053931 +1  -82.5409334 +1     2     1     3
  C(HETATM    6  C3  IPH A   1)   1.48670796 +1  109.0039787 +1  -75.8352947 +1     4     1     2
  C(HETATM    7  C4  IPH A   1)   1.48983381 +1  105.9987806 +1 -177.9285123 +1     5     2     1
  C(HETATM    8  C5  IPH A   1)   1.33325670 +1  122.8429600 +1  119.7509149 +1     6     4     1
  C(HETATM    9  C6  IPH A   1)   1.33420071 +1  122.6150548 +1  118.7353833 +1     7     5     2
  H(HETATM   10 1H1  IPH A   1)   1.11053415 +1  106.5672441 +1  164.1588656 +1     4     1     2
  H(HETATM   11 2H1  IPH A   1)   1.10495820 +1  112.1988066 +1   50.1683769 +1     4     1     2
  H(HETATM   12 1H2  IPH A   1)   1.10619127 +1  110.0881734 +1  -55.6032021 +1     5     2     1
  H(HETATM   13 2H2  IPH A   1)   1.10890819 +1  109.9358609 +1   62.3119540 +1     5     2     1
  H(HETATM   14  H3  IPH A   1)   1.09206762 +1  115.5890003 +1  -61.1892239 +1     6     4     1
  H(HETATM   15  H4  IPH A   1)   1.09320285 +1  115.4500724 +1  -61.8190401 +1     7     5     2
  H(HETATM   16 1H5  IPH A   1)   1.07940298 +1  123.5549028 +1  179.8267056 +1     8     6     4
  H(HETATM   17 2H5  IPH A   1)   1.08169806 +1  124.1238565 +1   -0.6965992 +1     8     6     4
  H(HETATM   18 1H6  IPH A   1)   1.08007654 +1  123.4575427 +1  179.5155667 +1     9     7     5
  H(HETATM   19 2H6  IPH A   1)   1.08036701 +1  124.2016002 +1   -0.7890923 +1     9     7     5

 XPARAM 
  1  1    0.0648  1  2   -0.0671  1  3   -0.1101  2  1    2.1097  2  2   -0.3109
  2  3   -0.1806  3  1    1.4685  3  2    1.9566  3  3    0.1933  4  1    1.8485
  4  2    1.6802  4  3    4.3668  5  1    1.8482  5  2    1.8135  5  3    4.8426
  6  1    1.4867  6  2    1.9025  6  3    4.9596  7  1    1.4898  7  2    1.8500
  7  3    3.1777  8  1    1.3333  8  2    2.1440  8  3    2.0900  9  1    1.3342
  9  2    2.1400  9  3    2.0723 10  1    1.1105 10  2    1.8599 10  3    2.8651
 11  1    1.1050 11  2    1.9582 11  3    0.8756 12  1    1.1062 12  2    1.9214
 12  3    5.3127 13  1    1.1089 13  2    1.9187 13  3    1.0875 14  1    1.0921
 14  2    2.0174 14  3    5.2152 15  1    1.0932 15  2    2.0150 15  3    5.2042
 16  1    1.0794 16  2    2.1564 16  3    3.1386 17  1    1.0817 17  2    2.1664
 17  3    6.2710 18  1    1.0801 18  2    2.1547 18  3    3.1331 19  1    1.0804
 19  2    2.1677 19  3    6.2694
 grad
      -0.00000   -0.00000   -0.00001   -1.16638    0.00000    0.00000   -0.34806    0.64800
       0.00000    0.86911   -0.97466   -1.12163    1.41822    0.01467   -0.48849    2.07317
      -0.89122   -0.29985    1.41144   -0.52333   -0.14744    0.01180   -0.25946    0.37785
       2.32138   -0.42752    0.49616   -0.13595   -1.15538    0.40337   -0.79348   -0.82191
      -0.31749    0.34706   -0.91082    0.20824   -0.64120   -0.45064    0.25936    0.21423
      -0.65337    0.65724    0.11460   -0.93341    0.89260    0.18745    0.36506    0.11567
       0.94291    0.15343    0.05930    0.39400    0.47456    0.08096    1.15234    0.30978
       0.04676
 CYCLE:    13 TIME:   0.009 TIME LEFT:  2.00D  GRAD.:     5.541 HEAT:  3.560843

          HESSIAN HAS  0 NEGATIVE EIGENVALUE(S)
  MIN SEARCH, CORRECT HESSIAN, TRYING PURE NR STEP
 LAMBDA THAT MINIMIZES ALONG ALL MODES =        0.000000000
 PURE NR-STEP HAS LENGTH   0.07667

  HEAT OF FORMATION        3.4613521862047492    
 PARAMETERS        0.072  -0.063  -0.100   2.110  -0.326  -0.227   1.469   1.949
   0.213   1.845   1.686   4.371   1.845   1.819   4.880   1.485   1.912   4.972

   1.488   1.854   3.185   1.334   2.145   2.079   1.333   2.141   2.059   1.111

   1.859   2.873   1.106   1.954   0.890   1.106   1.923   5.320   1.109   1.917

   1.092   1.092   2.019   5.204   1.093   2.017   5.190   1.079   2.155   3.137

   1.081   2.168   6.270   1.080   2.153   3.131   1.079   2.169   6.268
 GRADIENT         -0.000  -0.000  -0.000  -1.420   0.000   0.000  -0.462   0.021
   0.000  -0.177  -0.125  -0.342   0.219   0.408  -0.404   0.897  -0.022  -0.075

   0.176   0.069   0.191   0.188  -0.157   0.338  -1.127  -0.229   0.495  -0.247

  -1.140   0.227  -0.868  -0.916  -0.288  -0.111  -0.757   0.012  -0.645  -0.640

   0.210  -0.076  -0.394   0.618  -0.323  -0.450   0.840   0.027   0.333   0.050

   0.508   0.269   0.034  -0.016   0.287   0.019   0.473   0.259   0.025
       HoF         ACTUAL,  PREDICTED ENERGY CHANGE, RATIO
     3.4613522    -0.0994906          -0.0495621    2.0073910
     STEPSIZE USED IS  0.07667
 CALCULATED STEP
     0.006788  0.004317  0.009741 -0.000126 -0.014886 -0.046521  0.000516 -0.007912
     0.019553 -0.003155  0.006193  0.004237 -0.003320  0.005571  0.037669 -0.001799
     0.009337  0.012783 -0.001382  0.003874  0.007111  0.000271  0.001096 -0.011041
    -0.001646  0.001146 -0.013823  0.000266 -0.001229  0.007725  0.000737 -0.004451
     0.014314 -0.000255  0.001528  0.007048  0.000539 -0.002107  0.004950 -0.000292
     0.001266 -0.010947 -0.000315  0.001896 -0.014389 -0.000115 -0.001330 -0.001863
    -0.000843  0.001687 -0.001131 -0.000314 -0.001310 -0.002058 -0.000965  0.001224
    -0.001616
     NEW TRUST RADIUS =  0.28284
*REMARK   3 IPH = Phenol res:    1
 PM7 CHARGE=0 EF NOXYZ PRNT=2 PDBOUT COMPFG GRAPHF
 65036

  S(HETATM    1  S1  IPH A   1)   0.07154422 +1   -0.0627402 +1   -0.1003109 +1
  S(HETATM    2  S2  IPH A   1)   2.10954202 +1  -18.6669610 +1  -13.0140002 +1     1     0     0
  O(HETATM    3  O   IPH A   1)   1.46902372 +1  111.6490273 +1   12.1928798 +1     1     2     0
  C(HETATM    4  C1  IPH A   1)   1.84531601 +1   96.6210443 +1 -109.5567648 +1     1     2     3
  C(HETATM    5  C2  IPH A   1)   1.84485387 +1  104.2245855 +1  -80.3826577 +1     2     1     3
  C(HETATM    6  C3  IPH A   1)   1.48490931 +1  109.5389751 +1  -75.1028993 +1     4     1     2
  C(HETATM    7  C4  IPH A   1)   1.48845216 +1  106.2207432 +1 -177.5211097 +1     5     2     1
  C(HETATM    8  C5  IPH A   1)   1.33352818 +1  122.9057397 +1  119.1182902 +1     6     4     1
  C(HETATM    9  C6  IPH A   1)   1.33255457 +1  122.6807265 +1  117.9434057 +1     7     5     2
  H(HETATM   10 1H1  IPH A   1)   1.11080048 +1  106.4968228 +1  164.6014905 +1     4     1     2
  H(HETATM   11 2H1  IPH A   1)   1.10569490 +1  111.9438097 +1   50.9885155 +1     4     1     2
  H(HETATM   12 1H2  IPH A   1)   1.10593672 +1  110.1756988 +1  -55.1993624 +1     5     2     1
  H(HETATM   13 2H2  IPH A   1)   1.10944726 +1  109.8151287 +1   62.5955626 +1     5     2     1
[...]

   0.154   0.076   0.166   0.001  -0.098  -0.324   0.274  -0.341  -0.384  -0.084

   0.234  -0.072   0.150   0.202  -0.113   0.179   0.163   0.057   0.101  -0.030

   0.193  -0.043  -0.245   0.012   0.132   0.160   0.117   0.156   0.058  -0.121

   0.010   0.395   0.059   0.121   0.221  -0.141   0.064   0.310  -0.133
       HoF         ACTUAL,  PREDICTED ENERGY CHANGE, RATIO
     0.4291203    -0.0097799          -0.0085756    1.1404372
     STEPSIZE USED IS  0.05859
 CALCULATED STEP
     0.000529  0.000321  0.004876  0.000224 -0.001767 -0.007924 -0.000187 -0.000257
     0.025472  0.000009  0.001301  0.001151 -0.000084 -0.002801  0.013357 -0.000272
     0.003005  0.005149 -0.000260  0.001300  0.007470  0.000110 -0.001406 -0.012563
    -0.000273  0.002160 -0.031416  0.000050 -0.002337  0.001873 -0.000054 -0.002212
     0.004660  0.000011 -0.000257  0.005441 -0.000245  0.000526  0.004740 -0.000370
     0.000976 -0.013791  0.000168 -0.000585 -0.031045 -0.000232  0.001574  0.000594
     0.000020 -0.000734 -0.002282 -0.000221  0.000279  0.002302  0.000026 -0.000339
     0.001387
     NEW TRUST RADIUS =  0.28284
*REMARK   3 IPH = Phenol res:    1
 PM7 CHARGE=0 EF NOXYZ PRNT=2 PDBOUT COMPFG GRAPHF
 65036

  S(HETATM    1  S1  IPH A   1)   0.11859480 +1   -0.0953520 +1    0.0426038 +1
  S(HETATM    2  S2  IPH A   1)   2.06290618 +1  -27.4511200 +1  -51.6517519 +1     1     0     0
  O(HETATM    3  O   IPH A   1)   1.47357792 +1  112.7606920 +1   -5.8082744 +1     1     2     0
  C(HETATM    4  C1  IPH A   1)   1.84689871 +1  103.5946948 +1 -110.4173524 +1     1     2     3
  C(HETATM    5  C2  IPH A   1)   1.83985506 +1  113.0422278 +1   54.3786521 +1     2     1     3
  C(HETATM    6  C3  IPH A   1)   1.48289277 +1  109.7746547 +1  -63.0241531 +1     4     1     2
  C(HETATM    7  C4  IPH A   1)   1.48704164 +1  105.8683605 +1  155.5109830 +1     5     2     1
  C(HETATM    8  C5  IPH A   1)   1.33375167 +1  123.1701444 +1  108.6543503 +1     6     4     1
  C(HETATM    9  C6  IPH A   1)   1.33381881 +1  122.7092130 +1   97.7440651 +1     7     5     2
  H(HETATM   10 1H1  IPH A   1)   1.10988123 +1  107.1804997 +1  175.8930462 +1     4     1     2
  H(HETATM   11 2H1  IPH A   1)   1.10607637 +1  111.5692855 +1   62.7354831 +1     4     1     2
  H(HETATM   12 1H2  IPH A   1)   1.10966333 +1  109.0529945 +1  -82.9744424 +1     5     2     1
  H(HETATM   13 2H2  IPH A   1)   1.10576398 +1  111.4643577 +1   34.0473902 +1     5     2     1
  H(HETATM   14  H3  IPH A   1)   1.09223713 +1  115.5015242 +1  -72.1541149 +1     6     4     1
  H(HETATM   15  H4  IPH A   1)   1.09157300 +1  115.5716514 +1  -82.2258742 +1     7     5     2
  H(HETATM   16 1H5  IPH A   1)   1.08008524 +1  123.1825381 +1  179.9299721 +1     8     6     4
  H(HETATM   17 2H5  IPH A   1)   1.07859512 +1  124.5349442 +1   -0.1101222 +1     8     6     4
  H(HETATM   18 1H6  IPH A   1)   1.07997741 +1  123.3368936 +1  179.8171525 +1     9     7     5
  H(HETATM   19 2H6  IPH A   1)   1.08000180 +1  124.1404979 +1   -0.4906212 +1     9     7     5

 XPARAM 
  1  1    0.1186  1  2   -0.0954  1  3    0.0426  2  1    2.0629  2  2   -0.4791
  2  3   -0.9015  3  1    1.4736  3  2    1.9680  3  3   -0.1014  4  1    1.8469
  4  2    1.8081  4  3    4.3560  5  1    1.8399  5  2    1.9730  5  3    7.2323
  6  1    1.4829  6  2    1.9159  6  3    5.1832  7  1    1.4870  7  2    1.8478
  7  3    2.7142  8  1    1.3338  8  2    2.1497  8  3    1.8964  9  1    1.3338
  9  2    2.1417  9  3    1.7060 10  1    1.1099 10  2    1.8707 10  3    3.0699
 11  1    1.1061 11  2    1.9473 11  3    1.0949 12  1    1.1097 12  2    1.9033
 12  3    4.8350 13  1    1.1058 13  2    1.9454 13  3    0.5942 14  1    1.0922
 14  2    2.0159 14  3    5.0239 15  1    1.0916 15  2    2.0171 15  3    4.8481
 16  1    1.0801 16  2    2.1499 16  3    3.1404 17  1    1.0786 17  2    2.1735
 17  3    6.2813 18  1    1.0800 18  2    2.1526 18  3    3.1384 19  1    1.0800
 19  2    2.1667 19  3    6.2746
 grad
      -0.00000   -0.00000   -0.00000   -0.30897    0.00000    0.00000    0.40325   -0.16193
       0.00000   -0.00808    0.16482    0.28250    0.11607    0.57866   -0.02925    0.10448
      -0.20028   -0.10592    0.15407    0.07572    0.16647    0.00129   -0.09829   -0.32425
       0.27381   -0.34127   -0.38446   -0.08429    0.23445   -0.07235    0.15035    0.20157
      -0.11314    0.17935    0.16290    0.05667    0.10075   -0.03010    0.19285   -0.04316
      -0.24521    0.01179    0.13219    0.15959    0.11704    0.15601    0.05753   -0.12114
       0.00962    0.39514    0.05938    0.12072    0.22062   -0.14113    0.06411    0.30952
      -0.13348
 CYCLE:    66 TIME:   0.009 TIME LEFT:  2.00D  GRAD.:     1.445 HEAT: 0.4291203

          HESSIAN HAS  0 NEGATIVE EIGENVALUE(S)
  MIN SEARCH, CORRECT HESSIAN, TRYING PURE NR STEP
 LAMBDA THAT MINIMIZES ALONG ALL MODES =        0.000000000
 PURE NR-STEP HAS LENGTH   0.03189

  HEAT OF FORMATION       0.42349782872770447    
 PARAMETERS        0.119  -0.094   0.044   2.063  -0.479  -0.899   1.473   1.969
  -0.121   1.847   1.807   4.355   1.840   1.972   7.236   1.483   1.917   5.185

   1.487   1.847   2.707   1.334   2.149   1.899   1.334   2.142   1.721   1.110

   1.870   3.072   1.106   1.947   1.098   1.109   1.903   4.828   1.106   1.946

   0.587   1.092   2.017   5.024   1.092   2.017   4.862   1.080   2.150   3.140

   1.079   2.173   6.279   1.080   2.152   3.139   1.080   2.166   6.275
 GRADIENT         -0.000  -0.000  -0.000  -0.353   0.000   0.000   0.048  -0.128
   0.000  -0.088   0.178  -0.016   0.035   0.226  -0.034  -0.010  -0.200  -0.306

  -0.057   0.048  -0.042  -0.050   0.016  -0.134  -0.043  -0.134  -0.102  -0.157

   0.162  -0.114   0.096   0.142  -0.055   0.074   0.055   0.033  -0.039   0.004

   0.114  -0.085  -0.186  -0.067   0.083   0.164   0.147   0.049   0.019  -0.074

  -0.046   0.323   0.030   0.002   0.115  -0.111  -0.004   0.199  -0.116
       HoF         ACTUAL,  PREDICTED ENERGY CHANGE, RATIO
     0.4234978    -0.0056225          -0.0059109    0.9512044
     STEPSIZE USED IS  0.03189
 CALCULATED STEP
     0.000835  0.001094  0.001479  0.000029 -0.000121  0.002674 -0.000439  0.000718
    -0.019990 -0.000078 -0.000757 -0.000987  0.000064 -0.001025  0.003313 -0.000251
     0.001031  0.002195 -0.000258 -0.000848 -0.006742  0.000052 -0.000358  0.002387
    -0.000114  0.000275  0.014646 -0.000026 -0.001082  0.002111 -0.000066 -0.000580
     0.003436 -0.000182 -0.000635 -0.006596 -0.000230  0.000575 -0.006769 -0.000073
     0.000713 -0.000038  0.000036  0.000193  0.014243 -0.000239  0.000291 -0.000259
    -0.000032 -0.000925 -0.002177 -0.000225 -0.000137  0.001091 -0.000065 -0.000960
     0.000047
     NEW TRUST RADIUS =  0.28284
*REMARK   3 IPH = Phenol res:    1
 PM7 CHARGE=0 EF NOXYZ PRNT=2 PDBOUT COMPFG GRAPHF
 65036

  S(HETATM    1  S1  IPH A   1)   0.11942949 +1   -0.0942575 +1    0.0440830 +1
  S(HETATM    2  S2  IPH A   1)   2.06293526 +1  -27.4580499 +1  -51.4985642 +1     1     0     0
  O(HETATM    3  O   IPH A   1)   1.47313906 +1  112.8018477 +1   -6.9535947 +1     1     2     0
  C(HETATM    4  C1  IPH A   1)   1.84682033 +1  103.5513476 +1 -110.4738767 +1     1     2     3
  C(HETATM    5  C2  IPH A   1)   1.83991922 +1  112.9834934 +1   54.5684643 +1     2     1     3
  C(HETATM    6  C3  IPH A   1)   1.48264139 +1  109.8337538 +1  -62.8983934 +1     4     1     2
  C(HETATM    7  C4  IPH A   1)   1.48678398 +1  105.8197587 +1  155.1247073 +1     5     2     1
  C(HETATM    8  C5  IPH A   1)   1.33380325 +1  123.1496210 +1  108.7910933 +1     6     4     1
  C(HETATM    9  C6  IPH A   1)   1.33370458 +1  122.7249625 +1   98.5832263 +1     7     5     2
  H(HETATM   10 1H1  IPH A   1)   1.10985516 +1  107.1185053 +1  176.0140052 +1     4     1     2
  H(HETATM   11 2H1  IPH A   1)   1.10601045 +1  111.5360443 +1   62.9323510 +1     4     1     2
  H(HETATM   12 1H2  IPH A   1)   1.10948172 +1  109.0166313 +1  -83.3523901 +1     5     2     1
  H(HETATM   13 2H2  IPH A   1)   1.10553430 +1  111.4973236 +1   33.6595754 +1     5     2     1
  H(HETATM   14  H3  IPH A   1)   1.09216426 +1  115.5423607 +1  -72.1562884 +1     6     4     1
  H(HETATM   15  H4  IPH A   1)   1.09160863 +1  115.5826854 +1  -81.4097921 +1     7     5     2
  H(HETATM   16 1H5  IPH A   1)   1.07984662 +1  123.1992011 +1  179.9151097 +1     8     6     4
  H(HETATM   17 2H5  IPH A   1)   1.07856352 +1  124.4819737 +1   -0.2348748 +1     8     6     4
  H(HETATM   18 1H6  IPH A   1)   1.07975216 +1  123.3290725 +1  179.8796819 +1     9     7     5
  H(HETATM   19 2H6  IPH A   1)   1.07993727 +1  124.0854762 +1   -0.4879500 +1     9     7     5

 XPARAM 
  1  1    0.1194  1  2   -0.0943  1  3    0.0441  2  1    2.0629  2  2   -0.4792
  2  3   -0.8988  3  1    1.4731  3  2    1.9688  3  3   -0.1214  4  1    1.8468
  4  2    1.8073  4  3    4.3551  5  1    1.8399  5  2    1.9719  5  3    7.2356
  6  1    1.4826  6  2    1.9170  6  3    5.1854  7  1    1.4868  7  2    1.8469
  7  3    2.7074  8  1    1.3338  8  2    2.1494  8  3    1.8988  9  1    1.3337
  9  2    2.1420  9  3    1.7206 10  1    1.1099 10  2    1.8696 10  3    3.0720
 11  1    1.1060 11  2    1.9467 11  3    1.0984 12  1    1.1095 12  2    1.9027
 12  3    4.8284 13  1    1.1055 13  2    1.9460 13  3    0.5875 14  1    1.0922
 14  2    2.0166 14  3    5.0238 15  1    1.0916 15  2    2.0173 15  3    4.8623
 16  1    1.0798 16  2    2.1502 16  3    3.1401 17  1    1.0786 17  2    2.1726
 17  3    6.2791 18  1    1.0798 18  2    2.1525 18  3    3.1395 19  1    1.0799
 19  2    2.1657 19  3    6.2747
 grad
      -0.00000   -0.00000   -0.00000   -0.35268    0.00000    0.00000    0.04800   -0.12760
       0.00000   -0.08841    0.17776   -0.01588    0.03470    0.22610   -0.03362   -0.00951
      -0.19963   -0.30649   -0.05655    0.04769   -0.04190   -0.04972    0.01589   -0.13403
      -0.04341   -0.13371   -0.10176   -0.15680    0.16169   -0.11361    0.09567    0.14248
      -0.05538    0.07402    0.05501    0.03315   -0.03899    0.00415    0.11387   -0.08548
      -0.18561   -0.06727    0.08283    0.16409    0.14674    0.04857    0.01877   -0.07387
      -0.04632    0.32284    0.03022    0.00183    0.11539   -0.11098   -0.00369    0.19874
      -0.11630
 CYCLE:    67 TIME:   0.009 TIME LEFT:  2.00D  GRAD.:     0.919 HEAT: 0.4234978

     GRADIENT =  0.91870 IS LESS THAN CUTOFF =  1.00000



  HEAT OF FORMATION       0.42360670430207392    

 -------------------------------------------------------------------------------
 PM7 CHARGE=0 EF NOXYZ PRNT=2 PDBOUT COMPFG GRAPHF
 65036



     GEOMETRY OPTIMISED USING EIGENVECTOR FOLLOWING (EF).     
     SCF FIELD WAS ACHIEVED                                   


                              PM7 CALCULATION
                                                       MOPAC v22.0.6 Linux
                                                       Mon Oct  6 01:53:26 2025




          FINAL HEAT OF FORMATION =          0.42361 KCAL/MOL =       1.77237 KJ/MOL


          COSMO AREA              =        192.16 SQUARE ANGSTROMS
          COSMO VOLUME            =        201.54 CUBIC ANGSTROMS

          GRADIENT NORM           =          0.91870          =       0.21076 PER ATOM
          IONIZATION POTENTIAL    =          8.878677 EV
          HOMO LUMO ENERGIES (EV) =         -8.879 -0.824
          NO. OF FILLED LEVELS    =         26
          MOLECULAR WEIGHT        =        162.2644         POINT GROUP:  C1  

          MOLECULAR DIMENSIONS (Angstroms)

            Atom       Atom       Distance
            H    18    H    10     7.86848
            H    16    O     3     5.69683
            H    13    H    14     2.66518


          SCF CALCULATIONS        =         78

          WALL-CLOCK TIME         =      0.735 SECONDS
          COMPUTATION TIME        =      0.480 SECONDS




  ATOM               CHEMICAL                 BOND LENGTH      BOND ANGLE     TWIST ANGLE 
 NUMBER               SYMBOL                  (ANGSTROMS)      (DEGREES)       (DEGREES) 
   (I)                                           NA:I           NB:NA:I       NC:NB:NA:I       NA    NB    NC 
     1       S(HETATM    1  S1  IPH A   1)    0.11942949  *   -0.0942575  *    0.0440830  *
     2       S(HETATM    2  S2  IPH A   1)    2.06293526  *  -27.4580499  *  -51.4985642  *     1     0     0
     3       O(HETATM    3  O   IPH A   1)    1.47313906  *  112.8018477  *   -6.9535947  *     1     2     0
     4       C(HETATM    4  C1  IPH A   1)    1.84682033  *  103.5513476  * -110.4738767  *     1     2     3
     5       C(HETATM    5  C2  IPH A   1)    1.83991922  *  112.9834934  *   54.5684643  *     2     1     3
     6       C(HETATM    6  C3  IPH A   1)    1.48264139  *  109.8337538  *  -62.8983934  *     4     1     2
     7       C(HETATM    7  C4  IPH A   1)    1.48678398  *  105.8197587  *  155.1247073  *     5     2     1
     8       C(HETATM    8  C5  IPH A   1)    1.33380325  *  123.1496210  *  108.7910933  *     6     4     1
     9       C(HETATM    9  C6  IPH A   1)    1.33370458  *  122.7249625  *   98.5832263  *     7     5     2
    10       H(HETATM   10 1H1  IPH A   1)    1.10985516  *  107.1185053  *  176.0140052  *     4     1     2
    11       H(HETATM   11 2H1  IPH A   1)    1.10601045  *  111.5360443  *   62.9323510  *     4     1     2
    12       H(HETATM   12 1H2  IPH A   1)    1.10948172  *  109.0166313  *  -83.3523901  *     5     2     1
    13       H(HETATM   13 2H2  IPH A   1)    1.10553430  *  111.4973236  *   33.6595754  *     5     2     1
    14       H(HETATM   14  H3  IPH A   1)    1.09216426  *  115.5423607  *  -72.1562884  *     6     4     1
    15       H(HETATM   15  H4  IPH A   1)    1.09160863  *  115.5826854  *  -81.4097921  *     7     5     2
    16       H(HETATM   16 1H5  IPH A   1)    1.07984662  *  123.1992011  *  179.9151097  *     8     6     4
    17       H(HETATM   17 2H5  IPH A   1)    1.07856352  *  124.4819737  *   -0.2348748  *     8     6     4
    18       H(HETATM   18 1H6  IPH A   1)    1.07975216  *  123.3290725  *  179.8796819  *     9     7     5
    19       H(HETATM   19 2H6  IPH A   1)    1.07993727  *  124.0854762  *   -0.4879500  *     9     7     5

                             CARTESIAN COORDINATES

   1    S        0.119429490    -0.094257537     0.044082998
   2    S        2.182364745    -0.094257537     0.044082998
   3    O       -0.451478649     1.263756666     0.044082998
   4    C       -0.313311343    -0.722254958     1.726075848
   5    C        2.900790494     0.887724403     1.424256405
   6    C        0.186507154    -2.108516774     1.889431700
   7    C        4.253792145     0.319991382     1.664240485
   8    C        1.213960607    -2.425114694     2.678821504
   9    C        5.364342615     0.870159871     1.171533478
  10    H       -1.418521929    -0.677545143     1.817120214
  11    H        0.046668451    -0.040438677     2.519045093
  12    H        2.930162621     1.957087738     1.130064247
  13    H        2.270772551     0.833212018     2.331070542
  14    H       -0.354588957    -2.873403256     1.328195167
  15    H        4.283976592    -0.584454194     2.274712844
  16    H        1.577802474    -3.434641813     2.799415082
  17    H        1.775954852    -1.714531051     3.264084378
  18    H        6.351660304     0.467313014     1.341188746
  19    H        5.378738988     1.758599375     0.557748086


           Empirical Formula: C6 H10 O S2  =    19 atoms



      MOLECULAR POINT GROUP   :   C1  


                  EIGENVALUES  
 -30.32817 -28.72897 -28.17351 -26.12637 -24.42353 -22.86532 -20.05316 -19.53860
 -18.99534 -16.77478 -16.44614 -15.39042 -15.13745 -14.74396 -14.54383 -13.49962
 -13.26554 -12.85610 -12.46338 -12.37209 -11.99815 -11.13048 -10.40778 -10.01885
  -9.24187  -8.87868  -0.82401  -0.66098   0.11698   0.13809   0.36444   0.38584
   0.55583   0.71678   0.82942   1.23814   1.97018   2.84901   2.89348   2.90524
   3.17293   3.78231   3.92359   4.59058   4.81581   4.86084   5.28928   5.50904
   5.55926   5.65552   5.76213   5.80909   6.03065   6.16340   6.22447   6.36783


              NET ATOMIC CHARGES AND DIPOLE CONTRIBUTIONS

  ATOM NO.                 TYPE                        CHARGE      No. of ELECS.   s-Pop       p-Pop       d-Pop       
    1          S(HETATM    1  S1  IPH A   1)           1.121218        4.8788     1.77081     2.74454     0.36343
    2          S(HETATM    2  S2  IPH A   1)          -0.286398        6.2864     1.91712     4.24044     0.12884
    3          O(HETATM    3  O   IPH A   1)          -0.746684        6.7467     1.90374     4.84295
    4          C(HETATM    4  C1  IPH A   1)          -0.514310        4.5143     1.09326     3.42105
    5          C(HETATM    5  C2  IPH A   1)          -0.309092        4.3091     1.07796     3.23113
    6          C(HETATM    6  C3  IPH A   1)          -0.115769        4.1158     1.08130     3.03447
    7          C(HETATM    7  C4  IPH A   1)          -0.125784        4.1258     1.08478     3.04101
    8          C(HETATM    8  C5  IPH A   1)          -0.301489        4.3015     1.09644     3.20505
    9          C(HETATM    9  C6  IPH A   1)          -0.297912        4.2979     1.09760     3.20032
   10          H(HETATM   10 1H1  IPH A   1)           0.183836        0.8162     0.81616
   11          H(HETATM   11 2H1  IPH A   1)           0.173687        0.8263     0.82631
   12          H(HETATM   12 1H2  IPH A   1)           0.176122        0.8239     0.82388
   13          H(HETATM   13 2H2  IPH A   1)           0.157400        0.8426     0.84260
   14          H(HETATM   14  H3  IPH A   1)           0.146167        0.8538     0.85383
   15          H(HETATM   15  H4  IPH A   1)           0.148253        0.8517     0.85175
   16          H(HETATM   16 1H5  IPH A   1)           0.146253        0.8537     0.85375
   17          H(HETATM   17 2H5  IPH A   1)           0.145301        0.8547     0.85470
   18          H(HETATM   18 1H6  IPH A   1)           0.147776        0.8522     0.85222
   19          H(HETATM   19 2H6  IPH A   1)           0.151423        0.8486     0.84858
 DIPOLE           X         Y         Z       TOTAL
 POINT-CHG.     0.172    -3.977     0.607     4.027
 HYBRID         0.422     1.464     1.783     2.345
 SUM            0.594    -2.513     2.390     3.519


          ATOMIC ORBITAL ELECTRON POPULATIONS

                   Atom                  s        px        py        pz      x^2-y^2     xz        z^2       yz        xy
   S(HETATM    1  S1  IPH A   1)   1.77081   0.82357   0.86557   1.05540   0.09896   0.01330   0.04993   0.12023   0.08102
   S(HETATM    2  S2  IPH A   1)   1.91712   1.15332   1.67170   1.41542   0.03405   0.02577   0.02053   0.02764   0.02086
   O(HETATM    3  O   IPH A   1)   1.90374   1.65011   1.38983   1.80301
   C(HETATM    4  C1  IPH A   1)   1.09326   1.18949   1.08304   1.14852
   C(HETATM    5  C2  IPH A   1)   1.07796   1.05029   1.11540   1.06544
   C(HETATM    6  C3  IPH A   1)   1.08130   1.01131   0.99954   1.02362
   C(HETATM    7  C4  IPH A   1)   1.08478   0.96175   1.05257   1.02668
   C(HETATM    8  C5  IPH A   1)   1.09644   1.02837   1.14350   1.03318
   C(HETATM    9  C6  IPH A   1)   1.09760   1.06981   1.09273   1.03777
   H(HETATM   10 1H1  IPH A   1)   0.81616
   H(HETATM   11 2H1  IPH A   1)   0.82631
   H(HETATM   12 1H2  IPH A   1)   0.82388
   H(HETATM   13 2H2  IPH A   1)   0.84260
   H(HETATM   14  H3  IPH A   1)   0.85383
   H(HETATM   15  H4  IPH A   1)   0.85175
   H(HETATM   16 1H5  IPH A   1)   0.85375
   H(HETATM   17 2H5  IPH A   1)   0.85470
   H(HETATM   18 1H6  IPH A   1)   0.85222
   H(HETATM   19 2H6  IPH A   1)   0.84858

           DATA FOR GRAPH WRITTEN TO DISK

 **********************
 *                    *
 * JOB ENDED NORMALLY *
 *                    *
 **********************



 TOTAL JOB TIME:             0.75 SECONDS

 == MOPAC DONE ==
