 *******************************************************************************
 **                                                                           **
 **                              MOPAC v22.0.6                                **
 **                                                                           **
 *******************************************************************************
 **          Digital Object Identifier (DOI): 10.5281/zenodo.6511958          **
 **    Visit the DOI location for information on how to cite this program.    **
 *******************************************************************************

                              PM7 CALCULATION RESULTS

 *******************************************************************************
 *  CALCULATION DONE:                                Mon Oct  6 01:12:07 2025  *
 *  PM7        - The PM7 Hamiltonian to be used
 *  PDBOUT     - PRINT GEOMETRY IN PDB FORMAT
 *  RESIDUES   - DETERMINE THE SEQUENCE OF RESIDUES
 *
 *
 *
 *                 CHARGE ON SYSTEM = 0
 *
 *
 *
 *  EF         - USE EF ROUTINE FOR MINIMUM SEARCH
 *  T=         - A TIME OF 172800.0 SECONDS REQUESTED
 *  DUMP=N     - RESTART FILE WRITTEN EVERY 7200.0 SECONDS REQUESTED
 *  NOXYZ      - CARTESIAN COORDINATES NOT TO BE PRINTED
 *  PRNT       - EXTRA PRINTING IN EF ROUTINE
 *  GRAPH      - GENERATE FILE FOR GRAPHICS
 *  COMPFG     - PRINT HEAT OF FORMATION CALC'D IN COMPFG
 *******************************************************************************
PM7 CHARGE=0 EF NOXYZ PRNT=2 PDBOUT COMPFG GRAPHF
 10237

  ATOM    CHEMICAL      BOND LENGTH      BOND ANGLE     TWIST ANGLE 
 NUMBER    SYMBOL       (ANGSTROMS)      (DEGREES)       (DEGREES) 
   (I)                     NA:I           NB:NA:I       NC:NB:NA:I       NA    NB    NC 
     1       O          0.00000000  *    0.0000000  *    0.0000000  *     0     0     0
     2       O          4.85496400  *    0.0000000  *    0.0000000  *     1     0     0
     3       O          2.22926500  *  113.1889250  *    0.0000000  *     2     1     0
     4       O          4.48416500  *  144.9644820  *  166.9194740  *     1     2     3
     5       O          2.23516500  *  114.0398220  * -143.5044960  *     4     1     2
     6       O          2.26758300  *  106.8414890  * -167.1393160  *     1     2     3
     7       N          3.76060300  *   90.1696630  *   46.2983470  *     1     2     3
     8       C          1.49483100  *   20.1787230  *   26.9437790  *     7     1     2
     9       C          1.39533800  *  110.9737630  *   30.5466420  *     1     2     3
    10       C          1.53168000  *  111.0130560  * -128.1870900  *     8     7     1
    11       C          1.47699400  *  105.8507980  *  -82.3461290  *     7     1     2
    12       C          1.43131600  *  121.2067520  *   18.6369060  *    10     8     7
    13       C          1.50535100  *  121.5518330  *    1.1172950  *    12    10     8
    14       C          1.52406500  *  102.9409180  *  158.6278910  *     9     1     2
    15       C          1.37841500  *  108.4335950  *   -3.0984470  *    14     9     1
    16       C          1.41707600  *  119.7068850  * -159.9071280  *    10     8     7
    17       C          1.47950400  *  129.8775980  *   55.4079660  *     7     1     2
    18       C          1.41204500  *  120.0208690  * -177.6211490  *    12    10     8
    19       C          1.22008000  *   29.4792320  * -156.4898340  *     6     1     2
    20       C          1.33542800  *   47.2999520  *  -27.7952870  *     2     1     3
    21       C          1.41827500  *  131.6638240  *  175.0477180  *    14     9     1
    22       C          1.33554900  *   70.7006030  *  -21.3455770  *     3     2     1
    23       C          1.33412100  *   43.6164790  * -141.9488460  *     4     1     2
    24       C          1.33547300  *   70.8801810  *    0.9778240  *     5     4     1
    25       C          1.40254100  *  128.9522130  * -179.0510770  *    24     5     4
    26       C          1.39210400  *  145.9152120  *   22.9256990  *     2     1     3
    27       C          1.39359500  *  150.7623020  * -144.6201010  *     4     1     2
    28       H          1.11529100  *  107.4103510  *  114.1117270  *     8     7     1
    29       H          1.10920700  *  108.6596090  *  -85.7098790  *     9     1     2
    30       H          1.10989200  *  108.9376340  *  -34.7409420  *    11     7     1
    31       H          1.11268900  *  111.4903840  * -151.3230240  *    11     7     1
    32       H          1.11170400  *  111.1614700  *  130.9036690  *    13    12    10
    33       H          1.11108600  *  107.2883160  * -111.5380070  *    13    12    10
    34       H          1.08180400  *  121.9108970  *   -0.6069810  *    16    10     8
    35       H          1.11235400  *  110.2611140  *   51.6062230  *    17     7     1
    36       H          1.11010300  *  112.3427330  *  -68.2361280  *    17     7     1
    37       H          1.11234800  *  110.4966130  *  170.0325640  *    17     7     1
    38       H          1.08287100  *  121.4491150  *  179.3365180  *    18    12    10
    39       H          1.07939200  *  121.9680990  *   -0.6979230  *    21    14     9
    40       H          1.08201700  *  120.8675010  *    0.1195650  *    25    24     5
    41       H          1.11085900  *  110.0596160  * -155.9314540  *    26     2     1
    42       H          1.11062600  *  110.0922200  *   82.5914590  *    26     2     1
    43       H          1.11063900  *  110.0399790  * -117.5869140  *    27     4     1
    44       H          1.11076700  *  110.0451420  *  121.0465210  *    27     4     1
    45       H          1.03794500  *   94.0258270  *  167.4581030  *     7     1     2


 General Reference for PM7:
 "Optimization of Parameters for Semiempirical Methods VI: More Modifications to the 
 NDDO Approximations and Re-optimization of Parameters", J. J. P. Stewart, J. Mol. Mod., 1:32, 19 (2013)
 https://link.springer.com/article/10.1007/s00894-012-1667-x

           Empirical Formula: C20 H18 N O6  =    45 atoms



      MOLECULAR POINT GROUP   :   C1  


          UHF CALCULATION, NO. OF ALPHA ELECTRONS =   70
                           NO. OF BETA  ELECTRONS =   69

          Geometry optimization using EF

  HEAT OF FORMATION       -71.361311451561050    
 PARAMETERS        0.000   0.000   0.000   4.855   0.000   0.000   2.229   1.976
   0.000   4.484   2.530   2.913   2.235   1.990   3.779   2.268   1.865   3.366

   3.761   1.574   0.808   1.495   0.352   0.470   1.395   1.937   0.533   1.532

   1.938   4.046   1.477   1.847   4.846   1.431   2.115   0.325   1.505   2.121

   0.020   1.524   1.797   2.769   1.378   1.893   6.229   1.417   2.089   3.492

   1.480   2.267   0.967   1.412   2.095   3.183   1.220   0.515   3.552   1.335

   0.826   5.798   1.418   2.298   3.055   1.336   1.234   5.911   1.334   0.761

   3.806   1.335   1.237   0.017   1.403   2.251   3.158   1.392   2.547   0.400

   1.394   2.631   3.759   1.115   1.875   1.992   1.109   1.896   4.787   1.110

   1.901   5.677   1.113   1.946   3.642   1.112   1.940   2.285   1.111   1.873

   4.336   1.082   2.128   6.273   1.112   1.924   0.901   1.110   1.961   5.092

   1.112   1.929   2.968   1.083   2.120   3.130   1.079   2.129   6.271   1.082

   2.110   0.002   1.111   1.921   3.562   1.111   1.921   1.441   1.111   1.921

   4.231   1.111   1.921   2.113   1.038   1.641   2.923
 GRADIENT         -0.000   0.000   0.000  20.208   0.000   0.000-161.740 -44.138
   0.000  21.015-111.997  47.714-117.802  42.942  -2.009 -73.216  51.456 -19.996

  34.680  54.990 -15.156 -50.878  -4.170 -28.635 -57.614 -52.763  -5.528   4.223

 -46.840  15.391 -28.267   3.819   2.487  27.807 -14.839  -1.281  10.327  -5.665

  -0.234  -3.075  30.219  30.861 -49.818  34.995   5.666  16.561  21.321   3.195

 -27.563   6.910   7.005   9.928  -8.753   1.418  79.169 -95.824   2.798 -29.819

 110.989  40.205  15.500 -28.277   0.026 -27.924-125.255  -0.499 -27.960  67.148

  -0.458 -72.243 -60.952  -1.066 -24.998 -21.448   0.143 -26.620 -40.875 -17.670

 -24.490 -38.681   0.956  -9.433  -2.170   2.493  -1.000   6.320  -7.874  -9.020

   1.176   1.164  -1.139   2.938  -0.541  -0.236   2.408  -4.350  -0.488  -4.949

   3.666  -8.445   3.841   3.062   0.982  -1.827   1.262   1.602  -1.015   0.035

   4.212  -3.099  -1.786  -1.545   1.020  -0.253   1.833   1.180   0.728   3.172

   0.449  -0.281   2.037   3.381  -5.388   1.376   3.532   5.553   2.958   3.620

  -5.479   3.337   3.462   5.500 -22.946  14.081  -5.380

          DIAGONAL MATRIX USED AS START HESSIAN

*REMARK   3 HET = Not identified; C 20 H 18 N O 6    =    45 atoms res:    1
 PM7 CHARGE=0 EF NOXYZ PRNT=2 PDBOUT COMPFG GRAPHF
 10237

  O(HETATM    1  O1  HET A   1)   0.00000000 +1    0.0000000 +1    0.0000000 +1
  O(HETATM    2  O2  HET A   1)   4.85496400 +1    0.0000000 +1    0.0000000 +1     1     0     0
  O(HETATM    3  O3  HET A   1)   2.22926500 +1  113.1889250 +1    0.0000000 +1     2     1     0
  O(HETATM    4  O4  HET A   1)   4.48416500 +1  144.9644820 +1  166.9194740 +1     1     2     3
  O(HETATM    5  O5  HET A   1)   2.23516500 +1  114.0398220 +1 -143.5044960 +1     4     1     2
  O(HETATM    6  O6  HET A   1)   2.26758300 +1  106.8414890 +1 -167.1393160 +1     1     2     3
  N(HETATM    7  N   HET A   1)   3.76060300 +1   90.1696630 +1   46.2983470 +1     1     2     3
  C(HETATM    8  C1  HET A   1)   1.49483100 +1   20.1787230 +1   26.9437790 +1     7     1     2
  C(HETATM    9  C2  HET A   1)   1.39533800 +1  110.9737630 +1   30.5466420 +1     1     2     3
  C(HETATM   10  C3  HET A   1)   1.53168000 +1  111.0130560 +1 -128.1870900 +1     8     7     1
  C(HETATM   11  C4  HET A   1)   1.47699400 +1  105.8507980 +1  -82.3461290 +1     7     1     2
  C(HETATM   12  C5  HET A   1)   1.43131600 +1  121.2067520 +1   18.6369060 +1    10     8     7
  C(HETATM   13  C6  HET A   1)   1.50535100 +1  121.5518330 +1    1.1172950 +1    12    10     8
  C(HETATM   14  C7  HET A   1)   1.52406500 +1  102.9409180 +1  158.6278910 +1     9     1     2
  C(HETATM   15  C8  HET A   1)   1.37841500 +1  108.4335950 +1   -3.0984470 +1    14     9     1
  C(HETATM   16  C9  HET A   1)   1.41707600 +1  119.7068850 +1 -159.9071280 +1    10     8     7
  C(HETATM   17  C10 HET A   1)   1.47950400 +1  129.8775980 +1   55.4079660 +1     7     1     2
  C(HETATM   18  C11 HET A   1)   1.41204500 +1  120.0208690 +1 -177.6211490 +1    12    10     8
  C(HETATM   19  C12 HET A   1)   1.22008000 +1   29.4792320 +1 -156.4898340 +1     6     1     2
  C(HETATM   20  C13 HET A   1)   1.33542800 +1   47.2999520 +1  -27.7952870 +1     2     1     3
  C(HETATM   21  C14 HET A   1)   1.41827500 +1  131.6638240 +1  175.0477180 +1    14     9     1
  C(HETATM   22  C15 HET A   1)   1.33554900 +1   70.7006030 +1  -21.3455770 +1     3     2     1
  C(HETATM   23  C16 HET A   1)   1.33412100 +1   43.6164790 +1 -141.9488460 +1     4     1     2
  C(HETATM   24  C17 HET A   1)   1.33547300 +1   70.8801810 +1    0.9778240 +1     5     4     1
  C(HETATM   25  C18 HET A   1)   1.40254100 +1  128.9522130 +1 -179.0510770 +1    24     5     4
  C(HETATM   26  C19 HET A   1)   1.39210400 +1  145.9152120 +1   22.9256990 +1     2     1     3
  C(HETATM   27  C20 HET A   1)   1.39359500 +1  150.7623020 +1 -144.6201010 +1     4     1     2
  H(HETATM   28  H1  HET A   1)   1.11529100 +1  107.4103510 +1  114.1117270 +1     8     7     1
  H(HETATM   29  H2  HET A   1)   1.10920700 +1  108.6596090 +1  -85.7098790 +1     9     1     2
  H(HETATM   30 1H4  HET A   1)   1.10989200 +1  108.9376340 +1  -34.7409420 +1    11     7     1
  H(HETATM   31 2H4  HET A   1)   1.11268900 +1  111.4903840 +1 -151.3230240 +1    11     7     1
  H(HETATM   32 1H6  HET A   1)   1.11170400 +1  111.1614700 +1  130.9036690 +1    13    12    10
  H(HETATM   33 2H6  HET A   1)   1.11108600 +1  107.2883160 +1 -111.5380070 +1    13    12    10
  H(HETATM   34  H9  HET A   1)   1.08180400 +1  121.9108970 +1   -0.6069810 +1    16    10     8
  H(HETATM   35 1H10 HET A   1)   1.11235400 +1  110.2611140 +1   51.6062230 +1    17     7     1
  H(HETATM   36 2H10 HET A   1)   1.11010300 +1  112.3427330 +1  -68.2361280 +1    17     7     1
  H(HETATM   37 3H10 HET A   1)   1.11234800 +1  110.4966130 +1  170.0325640 +1    17     7     1
  H(HETATM   38  H11 HET A   1)   1.08287100 +1  121.4491150 +1  179.3365180 +1    18    12    10
  H(HETATM   39  H14 HET A   1)   1.07939200 +1  121.9680990 +1   -0.6979230 +1    21    14     9
  H(HETATM   40  H18 HET A   1)   1.08201700 +1  120.8675010 +1    0.1195650 +1    25    24     5
  H(HETATM   41 1H19 HET A   1)   1.11085900 +1  110.0596160 +1 -155.9314540 +1    26     2     1
  H(HETATM   42 2H19 HET A   1)   1.11062600 +1  110.0922200 +1   82.5914590 +1    26     2     1
  H(HETATM   43 1H20 HET A   1)   1.11063900 +1  110.0399790 +1 -117.5869140 +1    27     4     1
  H(HETATM   44 2H20 HET A   1)   1.11076700 +1  110.0451420 +1  121.0465210 +1    27     4     1
  H(HETATM   45  H   HET A   1)   1.03794500 +1   94.0258270 +1  167.4581030 +1     7     1     2

 XPARAM 
  1  1    0.0000  1  2    0.0000  1  3    0.0000  2  1    4.8550  2  2    0.0000
  2  3    0.0000  3  1    2.2293  3  2    1.9755  3  3    0.0000  4  1    4.4842
  4  2    2.5301  4  3    2.9133  5  1    2.2352  5  2    1.9904  5  3    3.7786
  6  1    2.2676  6  2    1.8647  6  3    3.3661  7  1    3.7606  7  2    1.5738
  7  3    0.8081  8  1    1.4948  8  2    0.3522  8  3    0.4703  9  1    1.3953
  9  2    1.9369  9  3    0.5331 10  1    1.5317 10  2    1.9375 10  3    4.0459
 11  1    1.4770 11  2    1.8474 11  3    4.8460 12  1    1.4313 12  2    2.1155
 12  3    0.3253 13  1    1.5054 13  2    2.1215 13  3    0.0195 14  1    1.5241
 14  2    1.7967 14  3    2.7686 15  1    1.3784 15  2    1.8925 15  3    6.2291
 16  1    1.4171 16  2    2.0893 16  3    3.4923 17  1    1.4795 17  2    2.2668
 17  3    0.9671 18  1    1.4120 18  2    2.0948 18  3    3.1831 19  1    1.2201
 19  2    0.5145 19  3    3.5519 20  1    1.3354 20  2    0.8255 20  3    5.7981
 21  1    1.4183 21  2    2.2980 21  3    3.0552 22  1    1.3355 22  2    1.2340
 22  3    5.9106 23  1    1.3341 23  2    0.7613 23  3    3.8057 24  1    1.3355
 24  2    1.2371 24  3    0.0171 25  1    1.4025 25  2    2.2506 25  3    3.1582
 26  1    1.3921 26  2    2.5467 26  3    0.4001 27  1    1.3936 27  2    2.6313
 27  3    3.7591 28  1    1.1153 28  2    1.8747 28  3    1.9916 29  1    1.1092
 29  2    1.8965 29  3    4.7873 30  1    1.1099 30  2    1.9013 30  3    5.6768
 31  1    1.1127 31  2    1.9459 31  3    3.6421 32  1    1.1117 32  2    1.9401
 32  3    2.2847 33  1    1.1111 33  2    1.8725 33  3    4.3365 34  1    1.0818
 34  2    2.1277 34  3    6.2726 35  1    1.1124 35  2    1.9244 35  3    0.9007
 36  1    1.1101 36  2    1.9608 36  3    5.0922 37  1    1.1123 37  2    1.9285
 37  3    2.9676 38  1    1.0829 38  2    2.1197 38  3    3.1300 39  1    1.0794
 39  2    2.1287 39  3    6.2710 40  1    1.0820 40  2    2.1095 40  3    0.0021
 41  1    1.1109 41  2    1.9209 41  3    3.5617 42  1    1.1106 42  2    1.9215
 42  3    1.4415 43  1    1.1106 43  2    1.9206 43  3    4.2309 44  1    1.1108
 44  2    1.9207 44  3    2.1127 45  1    1.0379 45  2    1.6411 45  3    2.9227
 grad
      -0.00000    0.00000    0.00001   20.20842    0.00000    0.00000 -161.73992  -44.13760
       0.00000   21.01486 -111.99748   47.71427 -117.80216   42.94225   -2.00920  -73.21640
      51.45628  -19.99643   34.67980   54.99046  -15.15568  -50.87765   -4.17011  -28.63491
     -57.61434  -52.76342   -5.52848    4.22254  -46.84009   15.39057  -28.26747    3.81875
       2.48728   27.80731  -14.83917   -1.28141   10.32702   -5.66537   -0.23357   -3.07524
      30.21914   30.86095  -49.81782   34.99509    5.66608   16.56117   21.32105    3.19470
     -27.56285    6.90957    7.00506    9.92796   -8.75302    1.41768   79.16945  -95.82411
       2.79846  -29.81931  110.98891   40.20523   15.50001  -28.27715    0.02645  -27.92432
    -125.25542   -0.49928  -27.96000   67.14824   -0.45825  -72.24296  -60.95154   -1.06579
     -24.99810  -21.44807    0.14329  -26.61992  -40.87454  -17.67046  -24.48953  -38.68102
       0.95588   -9.43311   -2.16960    2.49282   -0.99985    6.31968   -7.87386   -9.01997
       1.17563    1.16410   -1.13931    2.93752   -0.54083   -0.23643    2.40771   -4.35038
      -0.48764   -4.94946    3.66588   -8.44533    3.84092    3.06175    0.98243   -1.82670
       1.26224    1.60169   -1.01464    0.03542    4.21219   -3.09881   -1.78641   -1.54457
       1.02000   -0.25338    1.83262    1.18017    0.72791    3.17201    0.44898   -0.28149
       2.03692    3.38116   -5.38830    1.37641    3.53208    5.55345    2.95758    3.62028
      -5.47912    3.33742    3.46229    5.49979  -22.94558   14.08122   -5.37969
 CYCLE:     1 TIME:   0.380 TIME LEFT:  2.00D  GRAD.:   403.820 HEAT: -71.36131

          HESSIAN HAS  0 NEGATIVE EIGENVALUE(S)
  MIN SEARCH, CORRECT HESSIAN, TRYING PURE NR STEP
 LAMBDA THAT MINIMIZES ALONG ALL MODES =        0.000000000
 PURE NR-STEP HAS LENGTH   0.74170
 LAMBDA THAT MINIMIZES ALONG ALL MODES =     -184.282806223
 P-RFO-STEP   HAS LENGTH   0.50801
 LAMBDA THAT MINIMIZES ALONG ALL MODES =    -1272.192257464
 QA/TRIM-STEP HAS LENGTH   0.20000

  HEAT OF FORMATION        330.79770159955660    
 PARAMETERS       -0.009  -0.011   0.005   4.837  -0.008   0.006   2.290   1.991
   0.001   4.464   2.590   2.881   2.276   1.963   3.781   2.289   1.832   3.381

   3.736   1.536   0.820   1.509   0.346   0.493   1.412   1.958   0.538   1.521

   1.961   4.036   1.480   1.844   4.845   1.410   2.115   0.327   1.492   2.116

   0.020   1.516   1.775   2.749   1.391   1.873   6.226   1.401   2.074   3.491

   1.483   2.255   0.963   1.398   2.095   3.183   1.177   0.565   3.553   1.340

   0.763   5.774   1.402   2.310   3.055   1.339   1.304   5.913   1.338   0.720

   3.809   1.359   1.263   0.020   1.404   2.258   3.158   1.395   2.561   0.412

   1.395   2.650   3.758   1.117   1.874   1.990   1.107   1.892   4.793   1.111

   1.900   5.676   1.111   1.943   3.643   1.109   1.937   2.288   1.109   1.875

   4.334   1.083   2.126   6.271   1.109   1.923   0.900   1.107   1.961   5.092

   1.108   1.929   2.969   1.081   2.118   3.130   1.076   2.128   6.271   1.078

   2.107   0.002   1.107   1.918   3.566   1.107   1.917   1.438   1.107   1.918

   4.235   1.107   1.917   2.109   1.045   1.632   2.927
 GRADIENT         -0.000   0.000   0.000********   0.000   0.000 738.085********
   0.000-876.0041621.086-591.574-394.837******** 301.952 -16.286 118.490 -44.764

****************-913.4641772.690********3978.310  16.1952404.926 641.2561220.974

6715.753******** -25.746  18.019 -75.344-594.3604688.994-142.225 -24.613  35.035

 -16.250 831.944******** 158.873  12.002 -75.726  -4.549 -24.558 -88.448  -1.910

 -22.552   3.310   5.0081123.412******** -50.853   0.845  32.415  -0.607  49.881

  34.808   8.137 504.663 976.398-125.3581372.3771561.834 -92.041  20.466 -94.440

  -3.778 755.378******** 188.581 232.401 968.146 -71.014 -14.820  19.034  10.145

 -16.021  84.962  -0.833  -6.928  -0.802   4.956   2.173   1.993  -9.066  -3.572

  -2.213  -2.894   4.144  -2.563   6.876   0.287   0.891  -1.820   0.353  -7.468

   0.336   0.059 -10.873   3.385  -0.297  -1.464   1.269  -0.310  -0.475  -0.167

   1.930  -2.892  -1.841 -80.269  60.257   0.826 -66.621  77.416 -13.380 -13.289

   2.593  -3.442   2.276   3.309  -6.476   2.521   2.496   8.543   5.885   0.401

 -10.671   6.066   0.147  10.524 -15.276  11.628  -3.431
       HoF         ACTUAL,  PREDICTED ENERGY CHANGE, RATIO
   330.7977016   402.1590131         -63.4148045   -6.3417212
 UNACCEPTABLE RATIO, REJECTING STEP, REDUCING DMAX TO 0.1000
  MIN SEARCH, CORRECT HESSIAN, TRYING PURE NR STEP
 LAMBDA THAT MINIMIZES ALONG ALL MODES =        0.000000000
 PURE NR-STEP HAS LENGTH   0.74170
 LAMBDA THAT MINIMIZES ALONG ALL MODES =     -184.282806223
 P-RFO-STEP   HAS LENGTH   0.50801
 LAMBDA THAT MINIMIZES ALONG ALL MODES =    -3161.946715196
 QA/TRIM-STEP HAS LENGTH   0.10000

  HEAT OF FORMATION       -18.774121372392983    
 PARAMETERS       -0.005  -0.006   0.002   4.845  -0.003   0.002   2.262   1.983
   0.000   4.473   2.560   2.899   2.258   1.977   3.780   2.279   1.849   3.373

   3.747   1.556   0.813   1.503   0.349   0.480   1.404   1.947   0.535   1.526

   1.949   4.042   1.479   1.846   4.846   1.420   2.115   0.326   1.498   2.119

   0.020   1.520   1.786   2.760   1.385   1.883   6.228   1.408   2.082   3.492

   1.481   2.261   0.965   1.405   2.095   3.183   1.197   0.539   3.553   1.338

   0.795   5.787   1.409   2.304   3.055   1.337   1.268   5.912   1.336   0.741

   3.807   1.348   1.249   0.018   1.403   2.254   3.158   1.393   2.554   0.405

   1.394   2.640   3.759   1.116   1.874   1.991   1.108   1.894   4.790   1.111

   1.901   5.677   1.112   1.945   3.642   1.110   1.939   2.286   1.110   1.874

   4.336   1.082   2.127   6.272   1.111   1.924   0.900   1.108   1.961   5.092

   1.110   1.929   2.968   1.082   2.119   3.130   1.077   2.128   6.271   1.080

   2.108   0.002   1.109   1.919   3.563   1.109   1.919   1.440   1.108   1.919

   4.233   1.109   1.919   2.111   1.042   1.637   2.924
 GRADIENT          0.000   0.000   0.000-239.248   0.000   0.000 229.049-377.556
   0.000-320.469 709.875-292.253-148.224-946.341  34.062 -33.057  79.395 -29.751

-384.572********-159.796 475.009-790.3671226.042 -94.528 979.422 336.494 262.674

1953.854-676.882 -27.192  11.311 -35.747-209.1671314.511 -54.223  -7.503  13.572

  -7.817 293.701-630.124  -1.475 -19.089 -18.274  -0.373 -12.056 -38.688   0.353

 -24.902   5.165   6.139 215.352-645.684  -6.428  30.032 -20.713   1.040  -6.349

  25.823   8.070 124.441 395.799 -14.459 264.421 501.066  -8.952  -4.588 -18.460

  -2.896 240.737-341.181  15.167 109.074 301.834  -4.083 -21.315  -7.145  -2.188

 -22.216  31.488  -0.019  -8.045  -1.374   3.728   0.462   4.326  -8.531  -6.503

  -0.330  -0.490   1.508   0.119   3.198  -0.354   1.948  -3.488  -0.369  -5.897

   2.392  -4.220  -3.592   3.412   0.291  -1.596   1.262   0.618  -0.731  -0.053

   2.956  -2.973  -1.815 -30.550  25.776  -0.280 -25.599  32.018  -3.094  -5.361

   2.710  -1.395   2.156   3.358  -5.973   1.913   3.042   7.019   4.512   2.007

  -8.179   4.781   1.814   8.096 -18.998  13.254  -4.527
       HoF         ACTUAL,  PREDICTED ENERGY CHANGE, RATIO
   -18.7741214    52.5871901         -34.9253210   -1.5057038
 UNACCEPTABLE RATIO, REJECTING STEP, REDUCING DMAX TO 0.0500
  MIN SEARCH, CORRECT HESSIAN, TRYING PURE NR STEP
 LAMBDA THAT MINIMIZES ALONG ALL MODES =        0.000000000
 PURE NR-STEP HAS LENGTH   0.74170
 LAMBDA THAT MINIMIZES ALONG ALL MODES =     -184.282806223
 P-RFO-STEP   HAS LENGTH   0.50801
 LAMBDA THAT MINIMIZES ALONG ALL MODES =    -6980.509621287
 QA/TRIM-STEP HAS LENGTH   0.05000

  HEAT OF FORMATION       -71.090102388217929    
 PARAMETERS       -0.002  -0.003   0.001   4.850  -0.002   0.001   2.247   1.979
   0.000   4.478   2.545   2.907   2.247   1.984   3.779   2.274   1.857   3.369

   3.754   1.565   0.811   1.499   0.351   0.475   1.400   1.942   0.534   1.529

   1.943   4.044   1.478   1.847   4.846   1.425   2.115   0.326   1.501   2.120

   0.020   1.522   1.791   2.765   1.382   1.888   6.229   1.412   2.086   3.492

   1.480   2.264   0.966   1.408   2.095   3.183   1.208   0.526   3.552   1.337

   0.811   5.793   1.414   2.301   3.055   1.337   1.251   5.911   1.335   0.751

   3.806   1.342   1.243   0.018   1.403   2.252   3.158   1.393   2.550   0.403

   1.394   2.636   3.759   1.116   1.875   1.991   1.109   1.895   4.788   1.110

   1.901   5.677   1.112   1.945   3.642   1.111   1.939   2.285   1.110   1.873

   4.336   1.082   2.127   6.272   1.111   1.924   0.901   1.109   1.961   5.092

   1.111   1.929   2.968   1.082   2.119   3.130   1.078   2.129   6.271   1.081

   2.109   0.002   1.110   1.920   3.562   1.110   1.920   1.441   1.110   1.920

   4.232   1.110   1.920   2.112   1.040   1.639   2.924
 GRADIENT         -0.000   0.000   0.000 -63.070   0.000   0.000  18.986-110.770
   0.000-109.212 238.093-101.266-110.554-323.979   1.065 -48.933  65.330 -24.811

-122.034-795.274 -52.263 144.709-313.881 448.775 -87.450 373.343 144.900  84.545

 705.476-244.291 -27.629   7.655 -16.185 -65.164 471.342 -21.913   1.358   3.497

  -3.901 102.488-271.089   4.839 -37.517   0.677   2.273   0.167 -10.171   1.704

 -26.191   6.016   6.606  64.477-247.833  -1.902  52.381 -52.183   1.913 -23.709

  54.853  19.076  35.931 144.011  -0.647  56.939 143.271  -2.318 -17.690  31.857

  -2.008  49.904-136.934  -2.548  33.490  91.514   1.585 -24.067 -23.006  -9.508

 -24.373  -1.139   0.444  -8.620  -1.712   3.163  -0.238   5.350  -8.333  -7.838

   0.522   0.443   0.196   1.526   1.310  -0.383   2.248  -4.006  -0.504  -5.352

   3.110  -6.281   0.147   3.268   0.650  -1.674   1.259   1.124  -0.862  -0.013

   3.574  -3.024  -1.791 -13.866  12.166  -0.298  -9.985  14.861  -0.585  -1.317

   1.848  -0.719   2.101   3.366  -5.699   1.644   3.287   6.288   3.754   2.866

  -6.829   4.078   2.698   6.792 -21.002  13.920  -4.994
       HoF         ACTUAL,  PREDICTED ENERGY CHANGE, RATIO
   -71.0901024     0.2712091         -18.3004236   -0.0148198
 UNACCEPTABLE RATIO, REJECTING STEP, REDUCING DMAX TO 0.0250
  MIN SEARCH, CORRECT HESSIAN, TRYING PURE NR STEP
 LAMBDA THAT MINIMIZES ALONG ALL MODES =        0.000000000
 PURE NR-STEP HAS LENGTH   0.74170
 LAMBDA THAT MINIMIZES ALONG ALL MODES =     -184.282806223
 P-RFO-STEP   HAS LENGTH   0.50801
 LAMBDA THAT MINIMIZES ALONG ALL MODES =   -14638.032824715
 QA/TRIM-STEP HAS LENGTH   0.02500

  HEAT OF FORMATION       -76.475077863302431    
 PARAMETERS       -0.001  -0.001   0.001   4.852  -0.001   0.001   2.238   1.977
   0.000   4.481   2.537   2.910   2.241   1.987   3.779   2.271   1.861   3.368

   3.757   1.569   0.809   1.497   0.351   0.473   1.398   1.939   0.534   1.530

   1.940   4.045   1.477   1.847   4.846   1.428   2.115   0.325   1.503   2.121

   0.020   1.523   1.794   2.767   1.380   1.890   6.229   1.415   2.087   3.492

   1.480   2.265   0.967   1.410   2.095   3.183   1.214   0.520   3.552   1.336

   0.818   5.796   1.416   2.299   3.055   1.336   1.242   5.911   1.335   0.756

   3.806   1.339   1.240   0.017   1.403   2.252   3.158   1.392   2.548   0.401

   1.394   2.633   3.759   1.116   1.875   1.991   1.109   1.896   4.788   1.110

   1.901   5.677   1.112   1.946   3.642   1.111   1.940   2.285   1.111   1.873

   4.336   1.082   2.128   6.272   1.112   1.924   0.901   1.110   1.961   5.092

   1.112   1.929   2.968   1.083   2.119   3.130   1.079   2.129   6.271   1.081

   2.109   0.002   1.110   1.921   3.562   1.110   1.921   1.441   1.110   1.920

   4.231   1.110   1.920   2.112   1.039   1.640   2.923
 GRADIENT          0.000   0.000   0.000 -13.142   0.000   0.000 -73.522 -57.960
   0.000 -28.123  36.555 -16.096-109.208-101.867  -2.634 -59.262  59.240 -22.739

 -33.072-304.581 -28.169  33.680-141.209 178.420 -75.387 127.341  59.650  35.882

 278.444 -96.459 -27.872   5.752  -6.684 -13.140 192.450 -10.307   5.841  -1.223

  -2.029  33.468-110.744  17.332 -46.914  10.880   3.901   8.524   5.763   2.475

 -26.867   6.450   6.820  29.050-111.697  -0.196  65.390 -70.424   2.341 -28.320

  78.249  27.835  14.094  43.167   0.768   2.587   0.935  -1.110 -24.072  56.776

  -1.360 -22.460 -81.576  -3.065   0.141  19.297   1.185 -25.329 -31.656 -13.469

 -25.040 -19.091   0.700  -8.931  -1.899   2.884  -0.564   5.824  -8.219  -8.463

   0.904   0.838  -0.457   2.233   0.376  -0.325   2.347  -4.200  -0.511  -5.127

   3.400  -7.327   2.005   3.161   0.839  -1.722   1.259   1.382  -0.926   0.001

   3.904  -3.061  -1.783  -7.196   6.290  -0.274  -3.518   7.660   0.224   0.727

   1.240  -0.473   2.075   3.372  -5.550   1.518   3.408   5.921   3.357   3.292

  -6.141   3.709   3.128   6.131 -22.010  14.156  -5.206
       HoF         ACTUAL,  PREDICTED ENERGY CHANGE, RATIO
   -76.4750779    -5.1137664          -9.3639366    0.5461129
     STEPSIZE USED IS  0.02500
 CALCULATED STEP
    -0.001272 -0.001448  0.000526 -0.002564 -0.000791  0.000530  0.008812  0.001769
     0.000097 -0.002950  0.007181 -0.003238  0.005997 -0.003174  0.000229  0.003163
    -0.003820  0.001468 -0.003601 -0.004350  0.001195  0.002111 -0.000717  0.002320
     0.002362  0.002493  0.000463 -0.001595  0.002769 -0.000947  0.000492 -0.000435
    -0.000060 -0.003121 -0.000047  0.000143 -0.002003 -0.000701  0.000071 -0.001111
    -0.002559 -0.001963  0.001864 -0.002250 -0.000283 -0.002401 -0.001850 -0.000154
     0.000402 -0.001359 -0.000444 -0.001977  0.000079 -0.000035 -0.006226  0.005877
     0.000171  0.000707 -0.007355 -0.002409 -0.002356  0.001346  0.000020  0.000539
     0.008272  0.000257  0.000597 -0.004828  0.000344  0.003377  0.002931  0.000295
     0.000239  0.000912  0.000021  0.000311  0.001683  0.001166  0.000162  0.002161
    -0.000105  0.000222 -0.000075 -0.000138 -0.000319 -0.000486  0.000559  0.000194
    -0.000099 -0.000050 -0.000311 -0.000324  0.000062 -0.000368 -0.000362  0.000319
    -0.000351  0.000234 -0.000217  0.000149 -0.000244 -0.000191 -0.000446 -0.000157
    -0.000058 -0.000487  0.000015  0.000022 -0.000653  0.000038  0.000147 -0.000291
    -0.000226  0.000033 -0.000508 -0.000068 -0.000033 -0.000591 -0.000356  0.000036
    -0.000513 -0.000358  0.000390 -0.000471 -0.000482 -0.000347 -0.000572 -0.000338
     0.000396 -0.000596 -0.000441 -0.000344  0.001093 -0.001101  0.000405
     NEW TRUST RADIUS =  0.03536

     HESSIAN IS BEING UPDATED USING THE BFGS UPDATE

*REMARK   3 HET = Not identified; C 20 H 18 N O 6    =    45 atoms res:    1
 PM7 CHARGE=0 EF NOXYZ PRNT=2 PDBOUT COMPFG GRAPHF
 10237

  O(HETATM    1  O1  HET A   1)  -0.00127177 +1   -0.0014485 +1    0.0005260 +1
  O(HETATM    2  O2  HET A   1)   4.85239997 +1   -0.0453287 +1    0.0303912 +1     1     0     0
  O(HETATM    3  O3  HET A   1)   2.23807703 +1  113.2902830 +1    0.0055357 +1     2     1     0
  O(HETATM    4  O4  HET A   1)   4.48121525 +1  145.3759036 +1  166.7339445 +1     1     2     3
  O(HETATM    5  O5  HET A   1)   2.24116212 +1  113.8579786 +1 -143.4913874 +1     4     1     2
  O(HETATM    6  O6  HET A   1)   2.27074584 +1  106.6226135 +1 -167.0551777 +1     1     2     3
  N(HETATM    7  N   HET A   1)   3.75700175 +1   89.9204471 +1   46.3668275 +1     1     2     3
  C(HETATM    8  C1  HET A   1)   1.49694219 +1   20.1376436 +1   27.0767115 +1     7     1     2
  C(HETATM    9  C2  HET A   1)   1.39769998 +1  111.1166034 +1   30.5731673 +1     1     2     3
  C(HETATM   10  C3  HET A   1)   1.53008499 +1  111.1717204 +1 -128.2413430 +1     8     7     1
  C(HETATM   11  C4  HET A   1)   1.47748625 +1  105.8258584 +1  -82.3495828 +1     7     1     2
  C(HETATM   12  C5  HET A   1)   1.42819542 +1  121.2040864 +1   18.6450971 +1    10     8     7
  C(HETATM   13  C6  HET A   1)   1.50334777 +1  121.5116940 +1    1.1213780 +1    12    10     8
  C(HETATM   14  C7  HET A   1)   1.52295362 +1  102.7942977 +1  158.5154274 +1     9     1     2
  C(HETATM   15  C8  HET A   1)   1.38027916 +1  108.3046910 +1   -3.1146687 +1    14     9     1
  C(HETATM   16  C9  HET A   1)   1.41467516 +1  119.6009139 +1 -159.9159379 +1    10     8     7
  C(HETATM   17  C10 HET A   1)   1.47990649 +1  129.7997592 +1   55.3825212 +1     7     1     2
  C(HETATM   18  C11 HET A   1)   1.41006794 +1  120.0254059 +1 -177.6231567 +1    12    10     8
  C(HETATM   19  C12 HET A   1)   1.21385436 +1   29.8159520 +1 -156.4800509 +1     6     1     2
  C(HETATM   20  C13 HET A   1)   1.33613482 +1   46.8785506 +1  -27.9333135 +1     2     1     3
  C(HETATM   21  C14 HET A   1)   1.41591865 +1  131.7409398 +1  175.0488797 +1    14     9     1
  C(HETATM   22  C15 HET A   1)   1.33608817 +1   71.1745572 +1  -21.3308542 +1     3     2     1
  C(HETATM   23  C16 HET A   1)   1.33471772 +1   43.3398300 +1 -141.9291571 +1     4     1     2
  C(HETATM   24  C17 HET A   1)   1.33885028 +1   71.0481263 +1    0.9947004 +1     5     4     1
  C(HETATM   25  C18 HET A   1)   1.40277967 +1  129.0044702 +1 -179.0498541 +1    24     5     4
  C(HETATM   26  C19 HET A   1)   1.39241483 +1  146.0116192 +1   22.9924981 +1     2     1     3
  C(HETATM   27  C20 HET A   1)   1.39375746 +1  150.8861094 +1 -144.6261429 +1     4     1     2
  H(HETATM   28  H1  HET A   1)   1.11551291 +1  107.4060347 +1  114.1037926 +1     8     7     1
  H(HETATM   29  H2  HET A   1)   1.10888830 +1  108.6317553 +1  -85.6778519 +1     9     1     2
  H(HETATM   30 1H4  HET A   1)   1.11008581 +1  108.9319895 +1  -34.7438294 +1    11     7     1
  H(HETATM   31 2H4  HET A   1)   1.11237784 +1  111.4718131 +1 -151.3194678 +1    11     7     1
  H(HETATM   32 1H6  HET A   1)   1.11133559 +1  111.1407242 +1  130.9219534 +1    13    12    10
  H(HETATM   33 2H6  HET A   1)   1.11073543 +1  107.3017308 +1 -111.5504644 +1    13    12    10
  H(HETATM   34  H9  HET A   1)   1.08195348 +1  121.8969438 +1   -0.6179075 +1    16    10     8
  H(HETATM   35 1H10 HET A   1)   1.11190847 +1  110.2521361 +1   51.6028842 +1    17     7     1
  H(HETATM   36 2H10 HET A   1)   1.10961576 +1  112.3435793 +1  -68.2348437 +1    17     7     1
  H(HETATM   37 3H10 HET A   1)   1.11169535 +1  110.4988122 +1  170.0409843 +1    17     7     1
  H(HETATM   38  H11 HET A   1)   1.08258015 +1  121.4361674 +1  179.3384180 +1    18    12    10
  H(HETATM   39  H14 HET A   1)   1.07888421 +1  121.9642069 +1   -0.6998407 +1    21    14     9
  H(HETATM   40  H18 HET A   1)   1.08142556 +1  120.8470848 +1    0.1216054 +1    25    24     5
  H(HETATM   41 1H19 HET A   1)   1.11034557 +1  110.0391149 +1 -155.9091014 +1    26     2     1
  H(HETATM   42 2H19 HET A   1)   1.11015526 +1  110.0646210 +1   82.5715592 +1    26     2     1
  H(HETATM   43 1H20 HET A   1)   1.11006657 +1  110.0206324 +1 -117.5642096 +1    27     4     1
  H(HETATM   44 2H20 HET A   1)   1.11017074 +1  110.0198734 +1  121.0268310 +1    27     4     1
  H(HETATM   45  H   HET A   1)   1.03903847 +1   93.9627185 +1  167.4813003 +1     7     1     2

 XPARAM 
  1  1   -0.0013  1  2   -0.0014  1  3    0.0005  2  1    4.8524  2  2   -0.0008
  2  3    0.0005  3  1    2.2381  3  2    1.9773  3  3    0.0001  4  1    4.4812
  4  2    2.5373  4  3    2.9101  5  1    2.2412  5  2    1.9872  5  3    3.7788
  6  1    2.2707  6  2    1.8609  6  3    3.3675  7  1    3.7570  7  2    1.5694
  7  3    0.8093  8  1    1.4969  8  2    0.3515  8  3    0.4726  9  1    1.3977
  9  2    1.9394  9  3    0.5336 10  1    1.5301 10  2    1.9403 10  3    4.0450
 11  1    1.4775 11  2    1.8470 11  3    4.8459 12  1    1.4282 12  2    2.1154
 12  3    0.3254 13  1    1.5033 13  2    2.1208 13  3    0.0196 14  1    1.5230
 14  2    1.7941 14  3    2.7666 15  1    1.3803 15  2    1.8903 15  3    6.2288
 16  1    1.4147 16  2    2.0874 16  3    3.4921 17  1    1.4799 17  2    2.2654
 17  3    0.9666 18  1    1.4101 18  2    2.0948 18  3    3.1831 19  1    1.2139
 19  2    0.5204 19  3    3.5521 20  1    1.3361 20  2    0.8182 20  3    5.7957
 21  1    1.4159 21  2    2.2993 21  3    3.0552 22  1    1.3361 22  2    1.2422
 22  3    5.9109 23  1    1.3347 23  2    0.7564 23  3    3.8061 24  1    1.3389
 24  2    1.2400 24  3    0.0174 25  1    1.4028 25  2    2.2516 25  3    3.1582
 26  1    1.3924 26  2    2.5484 26  3    0.4013 27  1    1.3938 27  2    2.6335
 27  3    3.7590 28  1    1.1155 28  2    1.8746 28  3    1.9915 29  1    1.1089
 29  2    1.8960 29  3    4.7878 30  1    1.1101 30  2    1.9012 30  3    5.6768
 31  1    1.1124 31  2    1.9456 31  3    3.6422 32  1    1.1113 32  2    1.9398
 32  3    2.2850 33  1    1.1107 33  2    1.8728 33  3    4.3363 34  1    1.0820
 34  2    2.1275 34  3    6.2724 35  1    1.1119 35  2    1.9243 35  3    0.9006
 36  1    1.1096 36  2    1.9608 36  3    5.0923 37  1    1.1117 37  2    1.9286
 37  3    2.9678 38  1    1.0826 38  2    2.1195 38  3    3.1300 39  1    1.0789
 39  2    2.1287 39  3    6.2710 40  1    1.0814 40  2    2.1092 40  3    0.0021
 41  1    1.1103 41  2    1.9205 41  3    3.5621 42  1    1.1102 42  2    1.9210
 42  3    1.4411 43  1    1.1101 43  2    1.9202 43  3    4.2313 44  1    1.1102
 44  2    1.9202 44  3    2.1123 45  1    1.0390 45  2    1.6400 45  3    2.9231
 grad
       0.00000    0.00000    0.00001  -13.14190    0.00000    0.00000  -73.52187  -57.95975
       0.00000  -28.12295   36.55465  -16.09589 -109.20781 -101.86721   -2.63367  -59.26172
      59.24002  -22.73865  -33.07210 -304.58117  -28.16912   33.68044 -141.20950  178.42044
     -75.38681  127.34128   59.64994   35.88182  278.44371  -96.45875  -27.87154    5.75246
      -6.68356  -13.14010  192.44969  -10.30696    5.84072   -1.22336   -2.02900   33.46767
    -110.74383   17.33232  -46.91419   10.87982    3.90149    8.52381    5.76292    2.47451
     -26.86676    6.45039    6.81999   29.05008 -111.69745   -0.19600   65.38958  -70.42350
       2.34074  -28.31955   78.24873   27.83513   14.09364   43.16726    0.76764    2.58747
       0.93502   -1.11035  -24.07165   56.77605   -1.35977  -22.45977  -81.57580   -3.06547
       0.14067   19.29733    1.18517  -25.32942  -31.65628  -13.46888  -25.03993  -19.09125
       0.70046   -8.93090   -1.89949    2.88363   -0.56447    5.82433   -8.21910   -8.46269
       0.90356    0.83754   -0.45691    2.23311    0.37612   -0.32504    2.34659   -4.19974
      -0.51115   -5.12720    3.40001   -7.32741    2.00538    3.16101    0.83850   -1.72214
       1.25897    1.38232   -0.92599    0.00116    3.90400   -3.06101   -1.78316   -7.19565
       6.28959   -0.27387   -3.51807    7.66043    0.22401    0.72735    1.23962   -0.47307
       2.07503    3.37214   -5.55027    1.51777    3.40772    5.92144    3.35663    3.29194
      -6.14087    3.70909    3.12797    6.13085  -22.01003   14.15575   -5.20603
 CYCLE:     2 TIME:   0.327 TIME LEFT:  2.00D  GRAD.:   636.785 HEAT: -76.47508

          HESSIAN HAS  0 NEGATIVE EIGENVALUE(S)
  MIN SEARCH, CORRECT HESSIAN, TRYING PURE NR STEP
 LAMBDA THAT MINIMIZES ALONG ALL MODES =        0.000000000
 PURE NR-STEP HAS LENGTH   2.86726
 LAMBDA THAT MINIMIZES ALONG ALL MODES =     -274.062025882
 P-RFO-STEP   HAS LENGTH   0.82748
 LAMBDA THAT MINIMIZES ALONG ALL MODES =    -9378.103069441
 QA/TRIM-STEP HAS LENGTH   0.03536

  HEAT OF FORMATION       -81.265074607916176    
 PARAMETERS       -0.004  -0.004   0.002   4.849  -0.004   0.002   2.249   1.980
   0.000   4.479   2.542   2.907   2.251   1.988   3.779   2.276   1.855   3.370

   3.754   1.576   0.812   1.497   0.355   0.468   1.402   1.936   0.532   1.527

   1.933   4.048   1.479   1.847   4.846   1.425   2.107   0.326   1.500   2.119

   0.020   1.520   1.796   2.764   1.384   1.889   6.228   1.411   2.086   3.492

   1.481   2.263   0.966   1.407   2.100   3.183   1.204   0.529   3.553   1.337

   0.809   5.793   1.413   2.299   3.055   1.336   1.252   5.912   1.336   0.750

   3.807   1.342   1.245   0.018   1.403   2.252   3.158   1.393   2.550   0.403

   1.395   2.637   3.759   1.116   1.875   1.991   1.108   1.896   4.789   1.111

   1.901   5.677   1.112   1.945   3.642   1.111   1.939   2.286   1.110   1.873

   4.336   1.082   2.128   6.272   1.111   1.924   0.901   1.109   1.961   5.092

   1.111   1.929   2.968   1.082   2.119   3.130   1.078   2.129   6.271   1.081

   2.108   0.002   1.110   1.920   3.563   1.109   1.920   1.441   1.109   1.920

   4.232   1.109   1.920   2.112   1.041   1.638   2.924
 GRADIENT          0.000   0.000   0.000  32.262   0.000   0.000 -76.908 100.560
   0.000 -16.093   6.549  -3.857 -52.144  -2.577  -8.582 -31.121  25.222  -8.745

  72.360 277.380   0.763-102.168 122.105-223.564 -50.312  45.732  32.329 -52.116

-363.972 135.709 -11.678   1.008  60.411  20.978-258.486  22.934  18.724 -70.941

   9.454  26.874 -43.492  11.650 -52.328  33.204   1.248  11.450  50.956   5.083

 -26.225   5.309   5.980 -25.279  51.732   3.209  24.697 -62.292   1.999 -39.674

 -19.733  -6.429   2.530  24.854   2.720 -75.238 -48.057  -0.668 -27.715   4.861

  -1.582 -41.279   5.124  -7.122   1.334 -12.280   2.799 -22.141 -20.852  -8.583

 -23.968  -2.461   0.354  -8.401  -2.541   3.307  -0.496   6.243  -8.409 -11.681

   3.577   3.773  -4.481   4.920  -3.346  -4.701   4.832  -7.923  -4.403  -2.599

   6.801 -11.063   7.161   2.798   0.500  -1.597   1.196   1.011  -0.864  -0.088

   3.427  -2.982  -1.672  -0.180  -0.478   0.025  -3.613   7.415  -0.151   2.395

  -1.120  -0.612   1.966   3.381  -5.777   1.530   3.263   6.432   3.499   3.211

  -6.605   3.750   3.041   6.492 -21.114  14.044  -4.837
       HoF         ACTUAL,  PREDICTED ENERGY CHANGE, RATIO
   -81.2650746    -4.7899967         -13.5805136    0.3527110
     STEPSIZE USED IS  0.03536
 CALCULATED STEP
    -0.002563 -0.002285  0.001571 -0.003396 -0.003021  0.001250  0.011102  0.002557
     0.000038 -0.002359  0.004920 -0.002958  0.009790  0.001182  0.000270  0.004939
    -0.006032  0.002349 -0.003184  0.006288  0.002346 -0.000078  0.003960 -0.004345
     0.004661 -0.003426 -0.001967 -0.003403 -0.007718  0.003025  0.001162  0.000228
     0.000266 -0.003284 -0.008611  0.000500 -0.002865 -0.001747  0.000086 -0.002918
     0.001863 -0.002534  0.003372 -0.001182 -0.000394 -0.003196 -0.001715 -0.000296
     0.000922 -0.002308 -0.000833 -0.003548  0.004715 -0.000075 -0.009633  0.009030
     0.000697  0.001208 -0.009073 -0.002970 -0.003334 -0.000206 -0.000148 -0.000023
     0.009522  0.000608  0.000813 -0.006536  0.000911  0.003520  0.005071  0.000726
    -0.000148  0.000354 -0.000143  0.000806  0.002003  0.001437  0.000843  0.003358
    -0.000407  0.000408 -0.000056 -0.000234 -0.000418 -0.000436  0.000891  0.000420
     0.000249 -0.000068 -0.000428 -0.000270  0.000054 -0.000514 -0.000473  0.000490
    -0.000461  0.000657 -0.000331  0.000357  0.000134 -0.000326 -0.000659 -0.000273
    -0.000096 -0.000655  0.000364  0.000029 -0.000955  0.000219  0.000226 -0.000150
    -0.000391  0.000031 -0.000462  0.000085 -0.000054 -0.000806 -0.000693  0.000043
    -0.000734 -0.000357  0.000616 -0.000702 -0.000734 -0.000565 -0.000833 -0.000255
     0.000646 -0.000903 -0.000603 -0.000570  0.001794 -0.001592  0.000652
     NEW TRUST RADIUS =  0.03536
*REMARK   3 HET = Not identified; C 20 H 18 N O 6    =    45 atoms res:    1
 PM7 CHARGE=0 EF NOXYZ PRNT=2 PDBOUT COMPFG GRAPHF
 10237

  O(HETATM    1  O1  HET A   1)  -0.00383473 +1   -0.0037334 +1    0.0020972 +1
  O(HETATM    2  O2  HET A   1)   4.84900389 +1   -0.2184280 +1    0.1019938 +1     1     0     0
  O(HETATM    3  O3  HET A   1)   2.24917935 +1  113.4367820 +1    0.0077275 +1     2     1     0
  O(HETATM    4  O4  HET A   1)   4.47885636 +1  145.6577867 +1  166.5644632 +1     1     2     3
  O(HETATM    5  O5  HET A   1)   2.25095214 +1  113.9256760 +1 -143.4759457 +1     4     1     2
  O(HETATM    6  O6  HET A   1)   2.27568464 +1  106.2770199 +1 -166.9205974 +1     1     2     3
  N(HETATM    7  N   HET A   1)   3.75381791 +1   90.2807143 +1   46.5012355 +1     1     2     3
  C(HETATM    8  C1  HET A   1)   1.49686392 +1   20.3645063 +1   26.8277441 +1     7     1     2
  C(HETATM    9  C2  HET A   1)   1.40236086 +1  110.9203180 +1   30.4604585 +1     1     2     3
  C(HETATM   10  C3  HET A   1)   1.52668171 +1  110.7295092 +1 -128.0680197 +1     8     7     1
  C(HETATM   11  C4  HET A   1)   1.47864776 +1  105.8389186 +1  -82.3343438 +1     7     1     2
  C(HETATM   12  C5  HET A   1)   1.42491166 +1  120.7107120 +1   18.6737206 +1    10     8     7
  C(HETATM   13  C6  HET A   1)   1.50048276 +1  121.4116106 +1    1.1263146 +1    12    10     8
  C(HETATM   14  C7  HET A   1)   1.52003572 +1  102.9010401 +1  158.3702153 +1     9     1     2
  C(HETATM   15  C8  HET A   1)   1.38365131 +1  108.2369830 +1   -3.1372209 +1    14     9     1
  C(HETATM   16  C9  HET A   1)   1.41147900 +1  119.5026585 +1 -159.9328843 +1    10     8     7
  C(HETATM   17  C10 HET A   1)   1.48082890 +1  129.6675360 +1   55.3347853 +1     7     1     2
  C(HETATM   18  C11 HET A   1)   1.40651977 +1  120.2955610 +1 -177.6274654 +1    12    10     8
  C(HETATM   19  C12 HET A   1)   1.20422136 +1   30.3333497 +1 -156.4400967 +1     6     1     2
  C(HETATM   20  C13 HET A   1)   1.33734269 +1   46.3586997 +1  -28.1034617 +1     2     1     3
  C(HETATM   21  C14 HET A   1)   1.41258480 +1  131.7291651 +1  175.0403959 +1    14     9     1
  C(HETATM   22  C15 HET A   1)   1.33606518 +1   71.7201431 +1  -21.2959937 +1     3     2     1
  C(HETATM   23  C16 HET A   1)   1.33553116 +1   42.9653720 +1 -141.8769872 +1     4     1     2
  C(HETATM   24  C17 HET A   1)   1.34237011 +1   71.3386487 +1    1.0363119 +1     5     4     1
  C(HETATM   25  C18 HET A   1)   1.40263139 +1  129.0247473 +1 -179.0580471 +1    24     5     4
  C(HETATM   26  C19 HET A   1)   1.39322131 +1  146.1264074 +1   23.0748316 +1     2     1     3
  C(HETATM   27  C20 HET A   1)   1.39460054 +1  151.0785240 +1 -144.6494796 +1     4     1     2
  H(HETATM   28  H1  HET A   1)   1.11592068 +1  107.4028212 +1  114.0903913 +1     8     7     1
  H(HETATM   29  H2  HET A   1)   1.10847069 +1  108.6067904 +1  -85.6267838 +1     9     1     2
  H(HETATM   30 1H4  HET A   1)   1.11050612 +1  108.9462370 +1  -34.7477482 +1    11     7     1
  H(HETATM   31 2H4  HET A   1)   1.11194954 +1  111.4563649 +1 -151.3163856 +1    11     7     1
  H(HETATM   32 1H6  HET A   1)   1.11082204 +1  111.1136229 +1  130.9500213 +1    13    12    10
  H(HETATM   33 2H6  HET A   1)   1.11027446 +1  107.3393963 +1 -111.5694331 +1    13    12    10
  H(HETATM   34  H9  HET A   1)   1.08231024 +1  121.9046315 +1   -0.6365966 +1    16    10     8
  H(HETATM   35 1H10 HET A   1)   1.11124934 +1  110.2364826 +1   51.5973804 +1    17     7     1
  H(HETATM   36 2H10 HET A   1)   1.10896087 +1  112.3644243 +1  -68.2331895 +1    17     7     1
  H(HETATM   37 3H10 HET A   1)   1.11074044 +1  110.5113538 +1  170.0539373 +1    17     7     1
  H(HETATM   38  H11 HET A   1)   1.08243021 +1  121.4137391 +1  179.3402224 +1    18    12    10
  H(HETATM   39  H14 HET A   1)   1.07842237 +1  121.9690609 +1   -0.7029558 +1    21    14     9
  H(HETATM   40  H18 HET A   1)   1.08061939 +1  120.8073882 +1    0.1240848 +1    25    24     5
  H(HETATM   41 1H19 HET A   1)   1.10961122 +1  110.0186364 +1 -155.8738053 +1    26     2     1
  H(HETATM   42 2H19 HET A   1)   1.10945284 +1  110.0225767 +1   82.5391614 +1    26     2     1
  H(HETATM   43 1H20 HET A   1)   1.10923372 +1  110.0060400 +1 -117.5271910 +1    27     4     1
  H(HETATM   44 2H20 HET A   1)   1.10926726 +1  109.9853446 +1  120.9941523 +1    27     4     1
  H(HETATM   45  H   HET A   1)   1.04083234 +1   93.8715205 +1  167.5186518 +1     7     1     2

 XPARAM 
  1  1   -0.0038  1  2   -0.0037  1  3    0.0021  2  1    4.8490  2  2   -0.0038
  2  3    0.0018  3  1    2.2492  3  2    1.9798  3  3    0.0001  4  1    4.4789
  4  2    2.5422  4  3    2.9071  5  1    2.2510  5  2    1.9884  5  3    3.7791
  6  1    2.2757  6  2    1.8549  6  3    3.3699  7  1    3.7538  7  2    1.5757
  7  3    0.8116  8  1    1.4969  8  2    0.3554  8  3    0.4682  9  1    1.4024
  9  2    1.9359  9  3    0.5316 10  1    1.5267 10  2    1.9326 10  3    4.0480
 11  1    1.4786 11  2    1.8472 11  3    4.8462 12  1    1.4249 12  2    2.1068
 12  3    0.3259 13  1    1.5005 13  2    2.1190 13  3    0.0197 14  1    1.5200
 14  2    1.7960 14  3    2.7641 15  1    1.3837 15  2    1.8891 15  3    6.2284
 16  1    1.4115 16  2    2.0857 16  3    3.4918 17  1    1.4808 17  2    2.2631
 17  3    0.9658 18  1    1.4065 18  2    2.0996 18  3    3.1830 19  1    1.2042
 19  2    0.5294 19  3    3.5528 20  1    1.3373 20  2    0.8091 20  3    5.7927
 21  1    1.4126 21  2    2.2991 21  3    3.0550 22  1    1.3361 22  2    1.2518
 22  3    5.9115 23  1    1.3355 23  2    0.7499 23  3    3.8070 24  1    1.3424
 24  2    1.2451 24  3    0.0181 25  1    1.4026 25  2    2.2519 25  3    3.1580
 26  1    1.3932 26  2    2.5504 26  3    0.4027 27  1    1.3946 27  2    2.6368
 27  3    3.7586 28  1    1.1159 28  2    1.8745 28  3    1.9913 29  1    1.1085
 29  2    1.8955 29  3    4.7887 30  1    1.1105 30  2    1.9015 30  3    5.6767
 31  1    1.1119 31  2    1.9453 31  3    3.6422 32  1    1.1108 32  2    1.9393
 32  3    2.2855 33  1    1.1103 33  2    1.8734 33  3    4.3359 34  1    1.0823
 34  2    2.1276 34  3    6.2721 35  1    1.1112 35  2    1.9240 35  3    0.9005
 36  1    1.1090 36  2    1.9611 36  3    5.0923 37  1    1.1107 37  2    1.9288
 37  3    2.9680 38  1    1.0824 38  2    2.1191 38  3    3.1301 39  1    1.0784
 39  2    2.1288 39  3    6.2709 40  1    1.0806 40  2    2.1085 40  3    0.0022
 41  1    1.1096 41  2    1.9202 41  3    3.5627 42  1    1.1095 42  2    1.9203
 42  3    1.4406 43  1    1.1092 43  2    1.9200 43  3    4.2319 44  1    1.1093
 44  2    1.9196 44  3    2.1117 45  1    1.0408 45  2    1.6384 45  3    2.9238
 grad
       0.00000    0.00000    0.00001   32.26167    0.00000    0.00000  -76.90817  100.56009
       0.00000  -16.09335    6.54852   -3.85685  -52.14400   -2.57652   -8.58248  -31.12068
      25.22223   -8.74508   72.36037  277.37954    0.76257 -102.16776  122.10476 -223.56409
     -50.31216   45.73228   32.32881  -52.11568 -363.97218  135.70866  -11.67807    1.00816
      60.41114   20.97784 -258.48613   22.93417   18.72360  -70.94109    9.45376   26.87386
     -43.49161   11.65016  -52.32807   33.20357    1.24807   11.45032   50.95621    5.08270
     -26.22544    5.30926    5.97962  -25.27947   51.73153    3.20880   24.69750  -62.29188
       1.99929  -39.67372  -19.73337   -6.42859    2.52984   24.85411    2.72018  -75.23833
     -48.05718   -0.66795  -27.71483    4.86054   -1.58188  -41.27904    5.12442   -7.12242
       1.33362  -12.27965    2.79878  -22.14080  -20.85208   -8.58318  -23.96834   -2.46103
       0.35427   -8.40076   -2.54095    3.30745   -0.49565    6.24262   -8.40861  -11.68076
       3.57746    3.77292   -4.48129    4.91980   -3.34637   -4.70102    4.83159   -7.92332
      -4.40308   -2.59912    6.80087  -11.06329    7.16124    2.79771    0.50041   -1.59691
       1.19596    1.01145   -0.86430   -0.08777    3.42653   -2.98188   -1.67221   -0.18008
      -0.47752    0.02537   -3.61329    7.41532   -0.15082    2.39538   -1.12049   -0.61240
       1.96600    3.38098   -5.77742    1.52985    3.26335    6.43234    3.49850    3.21054
      -6.60467    3.75024    3.04120    6.49202  -21.11414   14.04405   -4.83684
 CYCLE:     3 TIME:   0.120 TIME LEFT:  2.00D  GRAD.:   671.052 HEAT: -81.26507

          HESSIAN HAS  0 NEGATIVE EIGENVALUE(S)
  MIN SEARCH, CORRECT HESSIAN, TRYING PURE NR STEP
 LAMBDA THAT MINIMIZES ALONG ALL MODES =        0.000000000
 PURE NR-STEP HAS LENGTH   0.96154
 LAMBDA THAT MINIMIZES ALONG ALL MODES =     -149.230465865
 P-RFO-STEP   HAS LENGTH   0.58882
 LAMBDA THAT MINIMIZES ALONG ALL MODES =    -6998.112169396
 QA/TRIM-STEP HAS LENGTH   0.03536

  HEAT OF FORMATION       -79.684512888328754    
 PARAMETERS       -0.005  -0.006   0.002   4.846  -0.002   0.002   2.257   1.976
   0.000   4.478   2.541   2.909   2.258   1.995   3.780   2.279   1.849   3.372

   3.749   1.576   0.814   1.501   0.355   0.474   1.408   1.924   0.525   1.526

   1.941   4.044   1.479   1.846   4.842   1.422   2.113   0.325   1.497   2.124

   0.019   1.514   1.806   2.762   1.388   1.885   6.228   1.408   2.081   3.491

   1.482   2.262   0.965   1.404   2.102   3.183   1.197   0.538   3.553   1.340

   0.805   5.792   1.409   2.294   3.055   1.339   1.254   5.912   1.337   0.745

   3.807   1.345   1.249   0.019   1.400   2.251   3.158   1.394   2.553   0.404

   1.395   2.637   3.759   1.116   1.875   1.991   1.108   1.894   4.790   1.111

   1.901   5.676   1.112   1.945   3.642   1.110   1.939   2.286   1.110   1.874

   4.335   1.083   2.127   6.272   1.111   1.924   0.900   1.108   1.961   5.092

   1.110   1.929   2.968   1.082   2.118   3.130   1.078   2.127   6.271   1.080

   2.108   0.002   1.109   1.919   3.564   1.109   1.920   1.440   1.108   1.919

   4.233   1.108   1.919   2.111   1.043   1.636   2.925
 GRADIENT          0.000   0.000   0.000   4.455   0.000   0.000  -5.693   4.001
   0.000  95.828-289.065 124.071  17.814 362.804 -16.653   2.876 -40.954  18.467

 -23.556-176.657 -13.195  17.128-128.703 155.003  25.813-388.399-121.662  10.496

 213.460 -83.761 -24.797   5.555 -11.314 -11.901 140.068 -12.181  -2.813  -3.197

  -3.742 -60.623 273.438  18.090 -78.745  73.203  -2.131  -6.769  -3.485   4.770

 -24.414   4.665   6.126   6.210 -88.037   2.427 -25.294 -71.410   1.755 -38.099

  13.053   6.204 -17.981-121.514   7.183 -13.410  62.554   0.837 -46.243 -38.900

  -2.038-143.451 160.546  -9.899 -37.034-120.747   3.537 -21.864  -3.646  -2.040

 -23.866  -4.280   0.047  -8.771  -1.778   3.901  -1.080   7.049  -8.925  -7.486

   0.457   0.546  -0.517   1.739   0.865  -1.615   2.263  -4.504  -1.520  -5.390

   3.320  -7.451   2.021   2.419   0.097  -1.486   1.126   0.547  -0.761  -0.021

   2.749  -2.814  -1.690  -7.903   6.351   0.672   5.550  -4.809   0.422   7.664

  -5.942  -0.429   2.331   2.828  -6.654   1.813   2.769   7.053   2.650   3.642

  -6.181   2.795   3.561   5.828 -20.658  13.346  -3.883
       HoF         ACTUAL,  PREDICTED ENERGY CHANGE, RATIO
   -79.6845129     1.5805617         -11.0967897   -0.1424341
 UNACCEPTABLE RATIO, REJECTING STEP, REDUCING DMAX TO 0.0177
  MIN SEARCH, CORRECT HESSIAN, TRYING PURE NR STEP
 LAMBDA THAT MINIMIZES ALONG ALL MODES =        0.000000000
 PURE NR-STEP HAS LENGTH   0.96154
 LAMBDA THAT MINIMIZES ALONG ALL MODES =     -149.230465865
 P-RFO-STEP   HAS LENGTH   0.58882
 LAMBDA THAT MINIMIZES ALONG ALL MODES =   -15303.009537759
 QA/TRIM-STEP HAS LENGTH   0.01768

  HEAT OF FORMATION       -84.563892200239934    
 PARAMETERS       -0.004  -0.005   0.002   4.848  -0.003   0.002   2.253   1.978
   0.000   4.479   2.542   2.908   2.254   1.991   3.780   2.277   1.852   3.371

   3.751   1.574   0.813   1.499   0.354   0.472   1.405   1.930   0.529   1.526

   1.938   4.046   1.479   1.847   4.844   1.423   2.111   0.325   1.499   2.122

   0.019   1.517   1.800   2.763   1.385   1.887   6.228   1.410   2.083   3.492

   1.481   2.262   0.965   1.405   2.100   3.183   1.201   0.533   3.553   1.339

   0.807   5.792   1.411   2.297   3.055   1.338   1.253   5.912   1.336   0.748

   3.807   1.344   1.247   0.019   1.401   2.251   3.158   1.393   2.552   0.404

   1.395   2.637   3.759   1.116   1.875   1.991   1.108   1.895   4.789   1.111

   1.901   5.677   1.112   1.945   3.642   1.111   1.939   2.286   1.110   1.873

   4.336   1.083   2.127   6.272   1.111   1.924   0.900   1.109   1.961   5.092

   1.110   1.929   2.968   1.082   2.119   3.130   1.078   2.128   6.271   1.080

   2.108   0.002   1.109   1.920   3.563   1.109   1.920   1.440   1.109   1.920

   4.232   1.109   1.919   2.111   1.042   1.637   2.924
 GRADIENT          0.000   0.000   0.000  10.829   0.000   0.000 -32.652  30.736
   0.000  35.604-134.953  56.851 -16.637 178.413 -13.035 -16.614  -6.878   4.309

   5.133 -54.838  -9.366 -17.249 -51.588  42.303 -14.198-160.844 -41.213  -5.417

  44.644 -18.597 -21.486   4.389  10.778  -1.702  24.353  -1.449   4.532 -23.508

   0.486 -13.360 112.409  15.514 -62.963  57.491  -0.066  -0.156  14.521   4.390

 -25.281   5.109   6.138  -3.004 -48.488   2.369   1.526 -69.865   1.995 -37.033

   7.605   3.662  -5.895 -46.271   4.706 -31.943  24.300   0.244 -35.373 -20.837

  -1.646 -91.862  82.659  -8.913 -18.076 -65.240   3.380 -22.310 -12.240  -5.301

 -23.742  -3.491   0.220  -8.703  -2.053   3.526  -0.833   6.576  -8.535  -8.942

   1.490   1.653  -1.742   2.761  -0.478  -2.476   3.133  -5.606  -2.342  -4.435

   4.510  -8.575   3.530   2.702   0.288  -1.571   1.170   0.766  -0.816  -0.037

   3.078  -2.903  -1.707  -5.715   4.602   0.284   0.672   1.557   0.019   5.006

  -3.276  -0.530   2.167   3.098  -6.213   1.681   3.013   6.730   3.087   3.360

  -6.422   3.296   3.226   6.204 -20.777  13.590  -4.379
       HoF         ACTUAL,  PREDICTED ENERGY CHANGE, RATIO
   -84.5638922    -3.2988176          -6.5663457    0.5023826
     STEPSIZE USED IS  0.01768
 CALCULATED STEP
    -0.000380 -0.000894 -0.000061 -0.001221  0.001162  0.000182  0.003461 -0.002208
     0.000157 -0.000278 -0.000487  0.000967  0.003281  0.002732  0.000557  0.001320
    -0.002607  0.001089 -0.002803 -0.001589  0.000928  0.002387 -0.001049  0.003605
     0.002701 -0.005479 -0.002810 -0.000213  0.005768 -0.002401 -0.000070 -0.000649
    -0.002032 -0.001533  0.004278 -0.000490 -0.001928  0.002476 -0.000197 -0.002931
     0.004298 -0.000786  0.001823 -0.002070 -0.000053 -0.001866 -0.002474 -0.000154
     0.000451 -0.000642 -0.000293 -0.001042  0.000641 -0.000011 -0.003235  0.003651
    -0.000113  0.001298 -0.001814 -0.000423 -0.001741 -0.002522 -0.000011  0.001643
     0.001105  0.000119  0.000859 -0.002110  0.000138  0.001292  0.001663  0.000420
    -0.001333 -0.000484 -0.000028  0.000183  0.001318  0.000802  0.000068  0.000131
     0.000098  0.000217  0.000012 -0.000180 -0.000321 -0.000558  0.000563  0.000277
    -0.000342 -0.000142 -0.000169 -0.000398  0.000142 -0.000147 -0.000380  0.000439
    -0.000172  0.000066 -0.000326  0.000194 -0.000515 -0.000164 -0.000348 -0.000013
    -0.000055 -0.000436 -0.000119  0.000028 -0.000558  0.000045  0.000135 -0.000166
    -0.000302  0.000033 -0.000174 -0.000679  0.000027 -0.000422 -0.000100  0.000063
    -0.000465 -0.000370  0.000392 -0.000409 -0.000337 -0.000379 -0.000562 -0.000370
     0.000440 -0.000554 -0.000330 -0.000387  0.001027 -0.001050  0.000342
     NEW TRUST RADIUS =  0.02500
*REMARK   3 HET = Not identified; C 20 H 18 N O 6    =    45 atoms res:    1
 PM7 CHARGE=0 EF NOXYZ PRNT=2 PDBOUT COMPFG GRAPHF
 10237

  O(HETATM    1  O1  HET A   1)  -0.00421499 +1   -0.0046270 +1    0.0020361 +1
  O(HETATM    2  O2  HET A   1)   4.84778308 +1   -0.1518303 +1    0.1124373 +1     1     0     0
  O(HETATM    3  O3  HET A   1)   2.25264055 +1  113.3102990 +1    0.0167377 +1     2     1     0
  O(HETATM    4  O4  HET A   1)   4.47857883 +1  145.6298581 +1  166.6198963 +1     1     2     3
  O(HETATM    5  O5  HET A   1)   2.25423355 +1  114.0821923 +1 -143.4440160 +1     4     1     2
  O(HETATM    6  O6  HET A   1)   2.27700485 +1  106.1276582 +1 -166.8582069 +1     1     2     3
  N(HETATM    7  N   HET A   1)   3.75101453 +1   90.1896499 +1   46.5544212 +1     1     2     3
  C(HETATM    8  C1  HET A   1)   1.49925052 +1   20.3043922 +1   27.0342803 +1     7     1     2
  C(HETATM    9  C2  HET A   1)   1.40506228 +1  110.6064073 +1   30.2994338 +1     1     2     3
  C(HETATM   10  C3  HET A   1)   1.52646828 +1  111.0599872 +1 -128.2055665 +1     8     7     1
  C(HETATM   11  C4  HET A   1)   1.47857799 +1  105.8017476 +1  -82.4507918 +1     7     1     2
  C(HETATM   12  C5  HET A   1)   1.42337853 +1  120.9558136 +1   18.6456658 +1    10     8     7
  C(HETATM   13  C6  HET A   1)   1.49855503 +1  121.5534613 +1    1.1150345 +1    12    10     8
  C(HETATM   14  C7  HET A   1)   1.51710442 +1  103.1473072 +1  158.3251962 +1     9     1     2
  C(HETATM   15  C8  HET A   1)   1.38547472 +1  108.1183734 +1   -3.1402778 +1    14     9     1
  C(HETATM   16  C9  HET A   1)   1.40961269 +1  119.3609199 +1 -159.9417349 +1    10     8     7
  C(HETATM   17  C10 HET A   1)   1.48128000 +1  129.6307621 +1   55.3180162 +1     7     1     2
  C(HETATM   18  C11 HET A   1)   1.40547819 +1  120.3322652 +1 -177.6280681 +1    12    10     8
  C(HETATM   19  C12 HET A   1)   1.20098608 +1   30.5425186 +1 -156.4465935 +1     6     1     2
  C(HETATM   20  C13 HET A   1)   1.33864026 +1   46.2547565 +1  -28.1276934 +1     2     1     3
  C(HETATM   21  C14 HET A   1)   1.41084358 +1  131.5846592 +1  175.0397469 +1    14     9     1
  C(HETATM   22  C15 HET A   1)   1.33770798 +1   71.7834490 +1  -21.2891826 +1     3     2     1
  C(HETATM   23  C16 HET A   1)   1.33639021 +1   42.8444677 +1 -141.8691006 +1     4     1     2
  C(HETATM   24  C17 HET A   1)   1.34366222 +1   71.4339431 +1    1.0603773 +1     5     4     1
  C(HETATM   25  C18 HET A   1)   1.40129875 +1  128.9970061 +1 -179.0596705 +1    24     5     4
  C(HETATM   26  C19 HET A   1)   1.39340454 +1  146.2019176 +1   23.1207794 +1     2     1     3
  C(HETATM   27  C20 HET A   1)   1.39466889 +1  151.0860322 +1 -144.6438885 +1     4     1     2
  H(HETATM   28  H1  HET A   1)   1.11613779 +1  107.4035206 +1  114.0801049 +1     8     7     1
  H(HETATM   29  H2  HET A   1)   1.10814991 +1  108.5748471 +1  -85.5945203 +1     9     1     2
  H(HETATM   30 1H4  HET A   1)   1.11078266 +1  108.9266645 +1  -34.7558988 +1    11     7     1
  H(HETATM   31 2H4  HET A   1)   1.11178043 +1  111.4335515 +1 -151.3082613 +1    11     7     1
  H(HETATM   32 1H6  HET A   1)   1.11067507 +1  111.0918571 +1  130.9751594 +1    13    12    10
  H(HETATM   33 2H6  HET A   1)   1.11010288 +1  107.3431668 +1 -111.5881259 +1    13    12    10
  H(HETATM   34  H9  HET A   1)   1.08250434 +1  121.8751324 +1   -0.6459852 +1    16    10     8
  H(HETATM   35 1H10 HET A   1)   1.11090170 +1  110.2357201 +1   51.5942513 +1    17     7     1
  H(HETATM   36 2H10 HET A   1)   1.10852505 +1  112.3575861 +1  -68.2315730 +1    17     7     1
  H(HETATM   37 3H10 HET A   1)   1.11018206 +1  110.5139441 +1  170.0616970 +1    17     7     1
  H(HETATM   38  H11 HET A   1)   1.08226408 +1  121.3964394 +1  179.3421040 +1    18    12    10
  H(HETATM   39  H14 HET A   1)   1.07824822 +1  121.9301348 +1   -0.7013891 +1    21    14     9
  H(HETATM   40  H18 HET A   1)   1.08019743 +1  120.8016761 +1    0.1276742 +1    25    24     5
  H(HETATM   41 1H19 HET A   1)   1.10914613 +1  109.9974594 +1 -155.8513413 +1    26     2     1
  H(HETATM   42 2H19 HET A   1)   1.10904405 +1  110.0032757 +1   82.5174629 +1    26     2     1
  H(HETATM   43 1H20 HET A   1)   1.10867186 +1  109.9848382 +1 -117.5019754 +1    27     4     1
  H(HETATM   44 2H20 HET A   1)   1.10871350 +1  109.9664210 +1  120.9719837 +1    27     4     1
  H(HETATM   45  H   HET A   1)   1.04185893 +1   93.8113805 +1  167.5382357 +1     7     1     2

 XPARAM 
  1  1   -0.0042  1  2   -0.0046  1  3    0.0020  2  1    4.8478  2  2   -0.0026
  2  3    0.0020  3  1    2.2526  3  2    1.9776  3  3    0.0003  4  1    4.4786
  4  2    2.5417  4  3    2.9081  5  1    2.2542  5  2    1.9911  5  3    3.7796
  6  1    2.2770  6  2    1.8523  6  3    3.3710  7  1    3.7510  7  2    1.5741
  7  3    0.8125  8  1    1.4993  8  2    0.3544  8  3    0.4718  9  1    1.4051
  9  2    1.9304  9  3    0.5288 10  1    1.5265 10  2    1.9384 10  3    4.0456
 11  1    1.4786 11  2    1.8466 11  3    4.8441 12  1    1.4234 12  2    2.1111
 12  3    0.3254 13  1    1.4986 13  2    2.1215 13  3    0.0195 14  1    1.5171
 14  2    1.8003 14  3    2.7633 15  1    1.3855 15  2    1.8870 15  3    6.2284
 16  1    1.4096 16  2    2.0832 16  3    3.4917 17  1    1.4813 17  2    2.2625
 17  3    0.9655 18  1    1.4055 18  2    2.1002 18  3    3.1830 19  1    1.2010
 19  2    0.5331 19  3    3.5527 20  1    1.3386 20  2    0.8073 20  3    5.7923
 21  1    1.4108 21  2    2.2966 21  3    3.0550 22  1    1.3377 22  2    1.2529
 22  3    5.9116 23  1    1.3364 23  2    0.7478 23  3    3.8071 24  1    1.3437
 24  2    1.2468 24  3    0.0185 25  1    1.4013 25  2    2.2514 25  3    3.1580
 26  1    1.3934 26  2    2.5517 26  3    0.4035 27  1    1.3947 27  2    2.6369
 27  3    3.7587 28  1    1.1161 28  2    1.8745 28  3    1.9911 29  1    1.1081
 29  2    1.8950 29  3    4.7893 30  1    1.1108 30  2    1.9011 30  3    5.6766
 31  1    1.1118 31  2    1.9449 31  3    3.6424 32  1    1.1107 32  2    1.9389
 32  3    2.2859 33  1    1.1101 33  2    1.8735 33  3    4.3356 34  1    1.0825
 34  2    2.1271 34  3    6.2719 35  1    1.1109 35  2    1.9240 35  3    0.9005
 36  1    1.1085 36  2    1.9610 36  3    5.0923 37  1    1.1102 37  2    1.9288
 37  3    2.9681 38  1    1.0823 38  2    2.1188 38  3    3.1301 39  1    1.0782
 39  2    2.1281 39  3    6.2709 40  1    1.0802 40  2    2.1084 40  3    0.0022
 41  1    1.1091 41  2    1.9198 41  3    3.5631 42  1    1.1090 42  2    1.9199
 42  3    1.4402 43  1    1.1087 43  2    1.9196 43  3    4.2324 44  1    1.1087
 44  2    1.9193 44  3    2.1114 45  1    1.0419 45  2    1.6373 45  3    2.9241
 grad
       0.00000    0.00000    0.00001   10.82865    0.00000    0.00000  -32.65193   30.73635
       0.00000   35.60381 -134.95299   56.85114  -16.63673  178.41289  -13.03465  -16.61446
      -6.87792    4.30862    5.13345  -54.83756   -9.36599  -17.24890  -51.58833   42.30330
     -14.19763 -160.84396  -41.21277   -5.41694   44.64438  -18.59728  -21.48614    4.38900
      10.77762   -1.70210   24.35345   -1.44943    4.53153  -23.50830    0.48629  -13.35988
     112.40882   15.51363  -62.96298   57.49065   -0.06595   -0.15631   14.52092    4.39016
     -25.28056    5.10880    6.13795   -3.00388  -48.48794    2.36927    1.52579  -69.86493
       1.99491  -37.03313    7.60462    3.66214   -5.89459  -46.27128    4.70590  -31.94277
      24.29952    0.24394  -35.37311  -20.83720   -1.64557  -91.86152   82.65928   -8.91323
     -18.07612  -65.23998    3.38001  -22.31033  -12.23974   -5.30140  -23.74160   -3.49096
       0.21952   -8.70286   -2.05338    3.52598   -0.83340    6.57607   -8.53532   -8.94241
       1.48965    1.65270   -1.74204    2.76138   -0.47809   -2.47606    3.13343   -5.60648
      -2.34239   -4.43482    4.51017   -8.57509    3.53029    2.70208    0.28821   -1.57081
       1.16997    0.76590   -0.81595   -0.03651    3.07801   -2.90285   -1.70749   -5.71497
       4.60192    0.28395    0.67167    1.55659    0.01906    5.00643   -3.27634   -0.53003
       2.16743    3.09794   -6.21336    1.68143    3.01275    6.72983    3.08715    3.36047
      -6.42165    3.29581    3.22579    6.20404  -20.77681   13.58979   -4.37896
 CYCLE:     4 TIME:   0.199 TIME LEFT:  2.00D  GRAD.:   394.159 HEAT: -84.56389

          HESSIAN HAS  0 NEGATIVE EIGENVALUE(S)
  MIN SEARCH, CORRECT HESSIAN, TRYING PURE NR STEP
 LAMBDA THAT MINIMIZES ALONG ALL MODES =        0.000000000
 PURE NR-STEP HAS LENGTH   0.64401
 LAMBDA THAT MINIMIZES ALONG ALL MODES =     -118.855769874
 P-RFO-STEP   HAS LENGTH   0.46578
 LAMBDA THAT MINIMIZES ALONG ALL MODES =   -11139.142128897
 QA/TRIM-STEP HAS LENGTH   0.02500

  HEAT OF FORMATION       -80.298472148875589    
 PARAMETERS       -0.005  -0.005   0.002   4.845  -0.004   0.003   2.255   1.973
   0.001   4.475   2.549   2.905   2.255   1.980   3.781   2.277   1.852   3.371

   3.748   1.572   0.814   1.501   0.355   0.473   1.406   1.939   0.531   1.526

   1.943   4.044   1.478   1.846   4.842   1.422   2.114   0.325   1.497   2.124

   0.019   1.516   1.794   2.762   1.388   1.883   6.228   1.408   2.081   3.491

   1.483   2.262   0.965   1.405   2.102   3.183   1.199   0.539   3.553   1.340

   0.808   5.792   1.410   2.299   3.055   1.339   1.252   5.912   1.337   0.749

   3.807   1.349   1.241   0.019   1.401   2.256   3.158   1.395   2.553   0.404

   1.395   2.637   3.759   1.117   1.875   1.991   1.108   1.894   4.790   1.111

   1.901   5.676   1.112   1.945   3.642   1.111   1.939   2.286   1.110   1.874

   4.335   1.083   2.127   6.272   1.111   1.924   0.900   1.108   1.961   5.092

   1.109   1.929   2.968   1.082   2.118   3.130   1.078   2.128   6.271   1.080

   2.108   0.002   1.109   1.920   3.564   1.109   1.920   1.440   1.108   1.919

   4.233   1.108   1.919   2.111   1.043   1.636   2.924
 GRADIENT          0.000   0.000   0.000 -27.888   0.000   0.000   3.591 -65.724
   0.000-138.372 285.536-119.105-117.189-444.854   5.737 -24.093  40.655 -14.489

 -60.510-437.298 -29.349  70.911-184.852 268.542 -53.569 398.794 149.962  49.551

 408.408-147.903 -26.545   6.906 -18.368 -29.712 277.839 -16.407  -3.897   5.471

  -4.348 130.644-262.650   0.868 -37.563   8.865  -0.439  -5.081  -2.579   3.917

 -23.614   4.443   6.178  27.757-146.226   0.233  16.358 -39.256   1.531 -29.479

  32.202  12.079  48.160 168.202  -1.728  20.357  88.972  -0.452 -15.949  23.382

  -3.435  86.961-186.723  -0.987  40.034 133.252   1.449 -21.970  -1.530  -1.590

 -23.061  17.184  -0.451  -7.857  -1.875   3.956  -0.426   5.607  -8.925  -7.214

   0.403   0.181   0.020   1.389   1.393  -0.939   1.901  -3.828  -1.100  -5.597

   2.910  -7.096   1.231   2.677   0.254  -1.395   1.187   0.511  -0.577  -0.007

   2.799  -2.797  -1.727  -9.713   7.623   0.474 -11.177  14.254  -0.810  -4.240

   4.119  -0.732   2.546   2.660  -6.921   1.978   2.704   7.064   3.708   2.389

  -7.631   3.878   2.362   7.181 -19.187  13.720  -3.971
       HoF         ACTUAL,  PREDICTED ENERGY CHANGE, RATIO
   -80.2984721     4.2654201          -7.5571822   -0.5644194
 UNACCEPTABLE RATIO, REJECTING STEP, REDUCING DMAX TO 0.0125
  MIN SEARCH, CORRECT HESSIAN, TRYING PURE NR STEP
 LAMBDA THAT MINIMIZES ALONG ALL MODES =        0.000000000
 PURE NR-STEP HAS LENGTH   0.64401
 LAMBDA THAT MINIMIZES ALONG ALL MODES =     -118.855769874
 P-RFO-STEP   HAS LENGTH   0.46578
 LAMBDA THAT MINIMIZES ALONG ALL MODES =   -23622.657592109
 QA/TRIM-STEP HAS LENGTH   0.01250

  HEAT OF FORMATION       -86.044672898744466    
 PARAMETERS       -0.005  -0.005   0.002   4.847  -0.003   0.003   2.254   1.975
   0.000   4.477   2.546   2.907   2.254   1.985   3.780   2.277   1.852   3.371

   3.750   1.573   0.813   1.500   0.355   0.472   1.406   1.935   0.530   1.526

   1.940   4.045   1.478   1.847   4.843   1.423   2.112   0.325   1.498   2.123

   0.019   1.517   1.797   2.763   1.387   1.885   6.228   1.409   2.082   3.491

   1.482   2.262   0.965   1.405   2.101   3.183   1.200   0.536   3.553   1.339

   0.807   5.792   1.410   2.298   3.055   1.338   1.253   5.912   1.337   0.748

   3.807   1.347   1.244   0.019   1.401   2.254   3.158   1.394   2.552   0.404

   1.395   2.637   3.759   1.116   1.875   1.991   1.108   1.895   4.790   1.111

   1.901   5.676   1.112   1.945   3.642   1.111   1.939   2.286   1.110   1.874

   4.335   1.083   2.127   6.272   1.111   1.924   0.900   1.108   1.961   5.092

   1.110   1.929   2.968   1.082   2.119   3.130   1.078   2.128   6.271   1.080

   2.108   0.002   1.109   1.920   3.563   1.109   1.920   1.440   1.108   1.919

   4.233   1.108   1.919   2.111   1.043   1.637   2.924
 GRADIENT          0.000   0.000   0.000  -3.073   0.000   0.000 -20.867  -6.062
   0.000 -37.324  51.129 -21.392 -61.519 -91.981  -5.181 -20.030  18.568  -5.736

 -16.606-186.972 -15.797  13.252 -94.287 120.009 -38.480  90.791  45.331  15.013

 168.910 -64.064 -23.397   5.365  -0.525 -10.234 112.244  -7.136   1.140 -12.172

  -1.391  44.120 -66.669   8.020 -50.499  28.798  -0.423  -2.142   8.909   4.260

 -24.477   4.742   6.139   6.923 -80.832   1.828   9.655 -52.337   1.711 -33.967

  16.836   6.828   9.104  47.029   2.148 -13.471  44.776   0.310 -25.721   6.215

  -2.666 -14.257 -33.480  -5.684   5.518  17.365   2.555 -22.082  -7.180  -3.534

 -23.608   7.522  -0.114  -8.181  -1.990   3.781  -0.558   6.041  -8.823  -8.289

   1.134   1.089  -1.055   2.245   0.215  -1.888   2.667  -4.913  -1.885  -4.868

   3.887  -7.999   2.702   2.671   0.303  -1.460   1.176   0.664  -0.690  -0.030

   2.968  -2.850  -1.706  -7.042   5.562   0.373  -4.965   7.997  -0.341   0.255

   0.433  -0.633   2.351   2.897  -6.547   1.831   2.871   6.885   3.431   2.867

  -7.049   3.623   2.789   6.716 -20.045  13.812  -4.212
       HoF         ACTUAL,  PREDICTED ENERGY CHANGE, RATIO
   -86.0446729    -1.4807807          -3.9793934    0.3721122
     STEPSIZE USED IS  0.01250
 CALCULATED STEP
    -0.000595 -0.000151 -0.000001 -0.001218 -0.000748  0.000655  0.001343 -0.002315
     0.000114 -0.001667  0.003853 -0.001454  0.000146 -0.005829  0.000623 -0.000015
    -0.000132  0.000067 -0.001275 -0.000902  0.000651  0.000903  0.000462  0.000521
     0.000545  0.004523  0.001043 -0.000162  0.001552 -0.000457 -0.000090 -0.000059
    -0.000859 -0.000459  0.001082 -0.000153 -0.000624  0.001110 -0.000099 -0.000491
    -0.003288 -0.000584  0.001461 -0.001957 -0.000003 -0.000808 -0.000925 -0.000199
     0.000651 -0.000428 -0.000273 -0.000362  0.001185 -0.000116 -0.001144  0.002867
     0.000012  0.000454  0.000120  0.000028 -0.000475  0.001215 -0.000207  0.000625
    -0.000253  0.000050  0.000513  0.000670  0.000163  0.002918 -0.003015  0.000414
    -0.000100  0.002198 -0.000162  0.000611  0.000338  0.000201  0.000297  0.000146
    -0.000067  0.000195  0.000063 -0.000154 -0.000224 -0.000234  0.000351  0.000111
    -0.000022 -0.000096 -0.000119 -0.000123  0.000035 -0.000048 -0.000166  0.000247
    -0.000125  0.000197 -0.000217  0.000079 -0.000106 -0.000130 -0.000138  0.000014
    -0.000058 -0.000297  0.000080 -0.000008 -0.000324  0.000118  0.000063 -0.000004
    -0.000151 -0.000024 -0.000283 -0.000049 -0.000014 -0.000271  0.000046  0.000009
    -0.000301 -0.000123  0.000249 -0.000211 -0.000168 -0.000290 -0.000367 -0.000114
     0.000264 -0.000306 -0.000157 -0.000273  0.000663 -0.000576  0.000184
     NEW TRUST RADIUS =  0.01250
*REMARK   3 HET = Not identified; C 20 H 18 N O 6    =    45 atoms res:    1
 PM7 CHARGE=0 EF NOXYZ PRNT=2 PDBOUT COMPFG GRAPHF
 10237

  O(HETATM    1  O1  HET A   1)  -0.00480973 +1   -0.0047782 +1    0.0020356 +1
  O(HETATM    2  O2  HET A   1)   4.84656491 +1   -0.1946839 +1    0.1499874 +1     1     0     0
  O(HETATM    3  O3  HET A   1)   2.25398357 +1  113.1776692 +1    0.0232761 +1     2     1     0
  O(HETATM    4  O4  HET A   1)   4.47691216 +1  145.8505970 +1  166.5365661 +1     1     2     3
  O(HETATM    5  O5  HET A   1)   2.25437939 +1  113.7482115 +1 -143.4083312 +1     4     1     2
  O(HETATM    6  O6  HET A   1)   2.27698980 +1  106.1200802 +1 -166.8543665 +1     1     2     3
  N(HETATM    7  N   HET A   1)   3.74973952 +1   90.1379457 +1   46.5916987 +1     1     2     3
  C(HETATM    8  C1  HET A   1)   1.50015349 +1   20.3308677 +1   27.0641054 +1     7     1     2
  C(HETATM    9  C2  HET A   1)   1.40560681 +1  110.8655524 +1   30.3591867 +1     1     2     3
  C(HETATM   10  C3  HET A   1)   1.52630606 +1  111.1489152 +1 -128.2317628 +1     8     7     1
  C(HETATM   11  C4  HET A   1)   1.47848818 +1  105.7983543 +1  -82.5000123 +1     7     1     2
  C(HETATM   12  C5  HET A   1)   1.42291952 +1  121.0178114 +1   18.6368762 +1    10     8     7
  C(HETATM   13  C6  HET A   1)   1.49793140 +1  121.6170339 +1    1.1093904 +1    12    10     8
  C(HETATM   14  C7  HET A   1)   1.51661292 +1  102.9589371 +1  158.2917300 +1     9     1     2
  C(HETATM   15  C8  HET A   1)   1.38693620 +1  108.0062706 +1   -3.1404622 +1    14     9     1
  C(HETATM   16  C9  HET A   1)   1.40880462 +1  119.3079308 +1 -159.9531417 +1    10     8     7
  C(HETATM   17  C10 HET A   1)   1.48193102 +1  129.6062181 +1   55.3023972 +1     7     1     2
  C(HETATM   18  C11 HET A   1)   1.40511661 +1  120.4001487 +1 -177.6347333 +1    12    10     8
  C(HETATM   19  C12 HET A   1)   1.19984180 +1   30.7068068 +1 -156.4458971 +1     6     1     2
  C(HETATM   20  C13 HET A   1)   1.33909444 +1   46.2616307 +1  -28.1261082 +1     2     1     3
  C(HETATM   21  C14 HET A   1)   1.41036859 +1  131.6542578 +1  175.0278645 +1    14     9     1
  C(HETATM   22  C15 HET A   1)   1.33833290 +1   71.7689518 +1  -21.2862975 +1     3     2     1
  C(HETATM   23  C16 HET A   1)   1.33690315 +1   42.8828407 +1 -141.8597437 +1     4     1     2
  C(HETATM   24  C17 HET A   1)   1.34658013 +1   71.2612038 +1    1.0840984 +1     5     4     1
  C(HETATM   25  C18 HET A   1)   1.40119906 +1  129.1229651 +1 -179.0689240 +1    24     5     4
  C(HETATM   26  C19 HET A   1)   1.39401522 +1  146.2212903 +1   23.1322858 +1     2     1     3
  C(HETATM   27  C20 HET A   1)   1.39496567 +1  151.0944079 +1 -144.6477193 +1     4     1     2
  H(HETATM   28  H1  HET A   1)   1.11633295 +1  107.4071553 +1  114.0712603 +1     8     7     1
  H(HETATM   29  H2  HET A   1)   1.10792620 +1  108.5614314 +1  -85.5744248 +1     9     1     2
  H(HETATM   30 1H4  HET A   1)   1.11089320 +1  108.9253857 +1  -34.7614037 +1    11     7     1
  H(HETATM   31 2H4  HET A   1)   1.11166167 +1  111.4265123 +1 -151.3062490 +1    11     7     1
  H(HETATM   32 1H6  HET A   1)   1.11062735 +1  111.0823504 +1  130.9893160 +1    13    12    10
  H(HETATM   33 2H6  HET A   1)   1.10997800 +1  107.3544646 +1 -111.6005816 +1    13    12    10
  H(HETATM   34  H9  HET A   1)   1.08258362 +1  121.8690687 +1   -0.6534085 +1    16    10     8
  H(HETATM   35 1H10 HET A   1)   1.11076331 +1  110.2365401 +1   51.5909067 +1    17     7     1
  H(HETATM   36 2H10 HET A   1)   1.10822802 +1  112.3621421 +1  -68.2320188 +1    17     7     1
  H(HETATM   37 3H10 HET A   1)   1.10985821 +1  110.5207204 +1  170.0652916 +1    17     7     1
  H(HETATM   38  H11 HET A   1)   1.08226022 +1  121.3878117 +1  179.3407225 +1    18    12    10
  H(HETATM   39  H14 HET A   1)   1.07796477 +1  121.9273418 +1   -0.7021832 +1    21    14     9
  H(HETATM   40  H18 HET A   1)   1.07992609 +1  120.8042918 +1    0.1281830 +1    25    24     5
  H(HETATM   41 1H19 HET A   1)   1.10884484 +1  109.9904344 +1 -155.8370512 +1    26     2     1
  H(HETATM   42 2H19 HET A   1)   1.10883310 +1  109.9936732 +1   82.5008439 +1    26     2     1
  H(HETATM   43 1H20 HET A   1)   1.10830439 +1  109.9783005 +1 -117.4868517 +1    27     4     1
  H(HETATM   44 2H20 HET A   1)   1.10840765 +1  109.9574253 +1  120.9563269 +1    27     4     1
  H(HETATM   45  H   HET A   1)   1.04252198 +1   93.7783576 +1  167.5487989 +1     7     1     2

 XPARAM 
  1  1   -0.0048  1  2   -0.0048  1  3    0.0020  2  1    4.8466  2  2   -0.0034
  2  3    0.0026  3  1    2.2540  3  2    1.9753  3  3    0.0004  4  1    4.4769
  4  2    2.5456  4  3    2.9066  5  1    2.2544  5  2    1.9853  5  3    3.7802
  6  1    2.2770  6  2    1.8521  6  3    3.3710  7  1    3.7497  7  2    1.5732
  7  3    0.8132  8  1    1.5002  8  2    0.3548  8  3    0.4724  9  1    1.4056
  9  2    1.9350  9  3    0.5299 10  1    1.5263 10  2    1.9399 10  3    4.0451
 11  1    1.4785 11  2    1.8465 11  3    4.8433 12  1    1.4229 12  2    2.1122
 12  3    0.3253 13  1    1.4979 13  2    2.1226 13  3    0.0194 14  1    1.5166
 14  2    1.7970 14  3    2.7627 15  1    1.3869 15  2    1.8851 15  3    6.2284
 16  1    1.4088 16  2    2.0823 16  3    3.4915 17  1    1.4819 17  2    2.2621
 17  3    0.9652 18  1    1.4051 18  2    2.1014 18  3    3.1829 19  1    1.1998
 19  2    0.5359 19  3    3.5527 20  1    1.3391 20  2    0.8074 20  3    5.7923
 21  1    1.4104 21  2    2.2978 21  3    3.0548 22  1    1.3383 22  2    1.2526
 22  3    5.9117 23  1    1.3369 23  2    0.7484 23  3    3.8073 24  1    1.3466
 24  2    1.2437 24  3    0.0189 25  1    1.4012 25  2    2.2536 25  3    3.1578
 26  1    1.3940 26  2    2.5520 26  3    0.4037 27  1    1.3950 27  2    2.6371
 27  3    3.7586 28  1    1.1163 28  2    1.8746 28  3    1.9909 29  1    1.1079
 29  2    1.8948 29  3    4.7896 30  1    1.1109 30  2    1.9011 30  3    5.6765
 31  1    1.1117 31  2    1.9448 31  3    3.6424 32  1    1.1106 32  2    1.9388
 32  3    2.2862 33  1    1.1100 33  2    1.8737 33  3    4.3354 34  1    1.0826
 34  2    2.1270 34  3    6.2718 35  1    1.1108 35  2    1.9240 35  3    0.9004
 36  1    1.1082 36  2    1.9611 36  3    5.0923 37  1    1.1099 37  2    1.9290
 37  3    2.9682 38  1    1.0823 38  2    2.1186 38  3    3.1301 39  1    1.0780
 39  2    2.1280 39  3    6.2709 40  1    1.0799 40  2    2.1084 40  3    0.0022
 41  1    1.1088 41  2    1.9197 41  3    3.5633 42  1    1.1088 42  2    1.9198
[...]
     3       O(HETATM    3  O3  HET A   1)    2.36125576  *  112.6872269  *  224.8383075  *     2     1     0
     4       O(HETATM    4  O4  HET A   1)    4.60636782  *  131.4874495  *  -37.1562402  *     1     2     3
     5       O(HETATM    5  O5  HET A   1)    2.35763686  *  111.1677042  *  -12.9118014  *     4     1     2
     6       O(HETATM    6  O6  HET A   1)    2.23405039  *  179.9939625  *  120.9340717  *     1     2     3
     7       N(HETATM    7  N   HET A   1)    3.05470982  *   75.2845691  *   18.1353507  *     1     2     3
     8       C(HETATM    8  C1  HET A   1)    1.53337177  *   49.8138195  *    7.8806167  *     7     1     2
     9       C(HETATM    9  C2  HET A   1)    1.42022712  *   41.2838177  *  -35.7397491  *     1     2     3
    10       C(HETATM   10  C3  HET A   1)    1.49698421  *  114.9608124  * -161.6300917  *     8     7     1
    11       C(HETATM   11  C4  HET A   1)    1.51116423  *  136.5446905  *  -72.3880557  *     7     1     2
    12       C(HETATM   12  C5  HET A   1)    1.39021103  *  123.5022281  *    1.9461202  *    10     8     7
    13       C(HETATM   13  C6  HET A   1)    1.49618306  *  120.5237334  *   -1.4518061  *    12    10     8
    14       C(HETATM   14  C7  HET A   1)    1.49398439  *  106.6241642  * -167.0333858  *     9     1     2
    15       C(HETATM   15  C8  HET A   1)    1.45078589  *  105.0304903  *  -14.7462578  *    14     9     1
    16       C(HETATM   16  C9  HET A   1)    1.41842911  *  115.4267489  * -177.6033307  *    10     8     7
    17       C(HETATM   17  C10 HET A   1)    1.49993405  *  112.6175475  *  105.6984942  *     7     1     2
    18       C(HETATM   18  C11 HET A   1)    1.41380064  *  121.8719556  *  179.6387452  *    12    10     8
    19       C(HETATM   19  C12 HET A   1)    1.19858676  *   36.1659558  * -162.7101439  *     6     1     2
    20       C(HETATM   20  C13 HET A   1)    1.37067517  *   43.5444022  *  -10.9000005  *     2     1     3
    21       C(HETATM   21  C14 HET A   1)    1.37775050  *  130.6454363  *  165.0814477  *    14     9     1
    22       C(HETATM   22  C15 HET A   1)    1.36856646  *   69.9434132  *   -8.2509524  *     3     2     1
    23       C(HETATM   23  C16 HET A   1)    1.37656896  *   41.6724937  *  -12.8566174  *     4     1     2
    24       C(HETATM   24  C17 HET A   1)    1.38337390  *   69.5176343  *    0.1510054  *     5     4     1
    25       C(HETATM   25  C18 HET A   1)    1.39479940  *  125.2453399  *  179.0399562  *    24     5     4
    26       C(HETATM   26  C19 HET A   1)    1.44794110  *  147.3235667  *   10.4157813  *     2     1     3
    27       C(HETATM   27  C20 HET A   1)    1.44482682  *  146.3536275  *  -13.5747646  *     4     1     2
    28       H(HETATM   28  H1  HET A   1)    1.13161333  *  106.9880014  *   77.7106410  *     8     7     1
    29       H(HETATM   29  H2  HET A   1)    1.10850658  *  106.0125883  *  -43.6042701  *     9     1     2
    30       H(HETATM   30 1H4  HET A   1)    1.12956328  *  107.4115149  *  -11.2335412  *    11     7     1
    31       H(HETATM   31 2H4  HET A   1)    1.11144497  *  109.1746164  * -125.8773679  *    11     7     1
    32       H(HETATM   32 1H6  HET A   1)    1.11449497  *  110.9494894  *  148.4810227  *    13    12    10
    33       H(HETATM   33 2H6  HET A   1)    1.11219684  *  109.6525353  *  -96.5792121  *    13    12    10
    34       H(HETATM   34  H9  HET A   1)    1.09041288  *  121.7775157  *    1.0522596  *    16    10     8
    35       H(HETATM   35 1H10 HET A   1)    1.10863101  *  110.2224315  *   14.2709871  *    17     7     1
    36       H(HETATM   36 2H10 HET A   1)    1.10334120  *  111.6085018  * -105.7756156  *    17     7     1
    37       H(HETATM   37 3H10 HET A   1)    1.10323009  *  110.9578068  *  133.3898803  *    17     7     1
    38       H(HETATM   38  H11 HET A   1)    1.08562530  *  121.6350096  *  179.6761000  *    18    12    10
    39       H(HETATM   39  H14 HET A   1)    1.08738775  *  120.5745140  *   -4.6858590  *    21    14     9
    40       H(HETATM   40  H18 HET A   1)    1.07645505  *  121.9677433  *    4.3667504  *    25    24     5
    41       H(HETATM   41 1H19 HET A   1)    1.09896607  *  107.8048747  * -133.3941119  *    26     2     1
    42       H(HETATM   42 2H19 HET A   1)    1.09964881  *  107.9539951  *  100.0789586  *    26     2     1
    43       H(HETATM   43 1H20 HET A   1)    1.09804958  *  107.8731297  * -116.1286182  *    27     4     1
    44       H(HETATM   44 2H20 HET A   1)    1.09709383  *  107.4089001  *  118.0174062  *    27     4     1
    45       H(HETATM   45  H   HET A   1)    1.08370690  *   59.3607198  * -155.2427486  *     7     1     2

                             CARTESIAN COORDINATES

   1    O       -1.335987606    -0.053923822    -4.385181040
   2    O        4.927345559    -0.053923822    -4.385181040
   3    O        5.838082778     2.124627644    -4.385181040
   4    O       -4.387503493     2.696202008    -2.301030558
   5    O       -3.346177577     4.039180531    -0.666863929
   6    O       -3.570037987    -0.054044837    -4.385382968
   7    N       -0.560034981     2.753820811    -5.304811237
   8    C        0.310926409     1.514267401    -5.067824785
   9    C       -0.268757212     0.706660229    -3.837845444
  10    C        1.772675991     1.791522229    -4.902356856
  11    C        0.022778904     3.994540195    -4.668760373
  12    C        2.317565291     3.070420073    -4.916592506
  13    C        1.444981581     4.265794743    -5.136230405
  14    C       -0.868003970     1.598819042    -2.800085679
  15    C       -2.296621226     1.559599718    -3.049673917
  16    C        2.594475264     0.647509529    -4.735557431
  17    C       -0.775850725     2.959570541    -6.774808777
  18    C        3.703660479     3.293213214    -4.749453042
  19    C       -2.602476766     0.473492494    -3.914065805
  20    C        3.933824405     0.873320888    -4.563740234
  21    C       -0.274973325     2.329173368    -1.793560139
  22    C        4.483235841     2.182308532    -4.569671839
  23    C       -3.037920516     2.430419332    -2.246924492
  24    C       -2.417169350     3.222025770    -1.285673391
  25    C       -1.050769252     3.201338974    -1.006409746
  26    C        6.146125251     0.714929450    -4.243851144
  27    C       -4.601367479     3.711656181    -1.295724853
  28    H        0.171384637     0.836097552    -5.962901588
  29    H        0.470080989    -0.029405426    -3.462196280
  30    H       -0.000544544     3.843436107    -3.549592484
  31    H       -0.643787667     4.859145022    -4.877224818
  32    H        1.841253916     5.153853579    -4.591786861
  33    H        1.475943764     4.559556169    -6.208483817
  34    H        2.182486748    -0.362017908    -4.746515219
  35    H       -1.407637915     2.147060222    -7.186797410
  36    H        0.178316847     2.964512534    -7.328795812
  37    H       -1.292553877     3.915010530    -6.967860378
  38    H        4.125756951     4.293278191    -4.766391231
  39    H        0.794294913     2.252970235    -1.611157733
  40    H       -0.621519642     3.793176908    -0.216328669
  41    H        6.817077730     0.435719108    -5.068224099
  42    H        6.530287787     0.557156647    -3.225639770
  43    H       -5.264128929     3.291292841    -0.527769899
  44    H       -4.966042623     4.610064501    -1.809037047
  45    H       -1.519269978     2.572117183    -4.834414963


           Empirical Formula: C20 H18 N O6  =    45 atoms



      MOLECULAR POINT GROUP   :   C1  


          ALPHA EIGENVALUES  
 -38.88426 -32.99126 -31.64542 -31.17541 -30.65319 -30.10925 -29.89613 -29.15515
 -28.62783 -28.25585 -27.99239 -26.38755 -26.25650 -25.22977 -25.16997 -24.81827
 -23.92221 -23.14397 -23.07275 -22.72269 -21.95215 -21.36801 -20.37718 -20.02185
 -19.62480 -18.90345 -18.60049 -18.37940 -17.83304 -17.57753 -17.31496 -17.02717
 -16.69864 -16.52034 -16.31406 -16.06361 -15.97775 -15.65673 -15.56508 -15.54161
 -15.20208 -15.13337 -14.86993 -14.64478 -14.42350 -14.35779 -14.22787 -14.04846
 -13.87622 -13.80818 -13.55369 -13.49927 -13.43780 -13.16751 -12.91206 -12.81396
 -12.65338 -12.45551 -12.10391 -12.03398 -11.75962 -11.65830 -10.85024 -10.58842
 -10.44032  -9.76886  -9.51874  -9.43422  -8.45173  -6.09071  -0.86459  -0.78626
  -0.26316   0.47254   1.05172   1.18292   1.39045   1.76527   1.79764   1.94763
   2.06966   2.17276   2.35465   2.44213   2.64622   2.76354   2.81431   2.89053
   3.03564   3.12371   3.36291   3.52127   3.58547   3.73480   3.76149   3.80351
   3.89429   3.97598   4.05047   4.10558   4.13546   4.22869   4.28467   4.34210
   4.39859   4.44262   4.47805   4.59071   4.70284   5.01644   5.07461   5.14562
   5.23539   5.28792   5.34360   5.54653   5.62429   5.68430   5.78370   5.80940
   5.83613   6.15529   6.53046   6.59848   6.87115   7.07502


           BETA EIGENVALUES 
 -38.88225 -32.99106 -31.64460 -31.12961 -30.61354 -30.10879 -29.69243 -29.14297
 -28.60194 -28.21840 -27.97836 -26.38674 -26.25079 -25.20171 -25.11681 -24.79612
 -23.91071 -23.13807 -23.05766 -22.70207 -21.88399 -21.35143 -20.36638 -19.98152
 -19.60063 -18.86392 -18.57506 -18.36831 -17.83247 -17.56912 -17.31192 -17.01201
 -16.68437 -16.48659 -16.26383 -16.05727 -15.96427 -15.62709 -15.53999 -15.53210
 -15.17119 -15.10064 -14.86851 -14.62824 -14.42233 -14.32952 -14.18945 -14.04013
 -13.87303 -13.80169 -13.46898 -13.44074 -13.34486 -13.12505 -12.89189 -12.78779
 -12.48360 -12.41356 -12.07691 -11.93802 -11.71838 -11.59293 -10.68661 -10.56781
 -10.33393  -9.69078  -9.50598  -8.54575  -7.90380  -0.86779  -0.78591  -0.26101
   0.47212   0.59400   1.14026   1.18333   1.40246   1.77194   1.80768   2.07194
   2.19777   2.35929   2.44522   2.45485   2.68436   2.80855   2.90751   3.04545
   3.13032   3.34977   3.52286   3.58312   3.58598   3.75878   3.79222   3.82623
   3.89628   3.98176   4.06758   4.11201   4.18605   4.23273   4.30792   4.34427
   4.40469   4.44262   4.49123   4.58582   4.70357   5.01740   5.11527   5.17501
   5.27372   5.29520   5.41130   5.57336   5.63944   5.72756   5.79687   5.87228
   5.92572   6.32384   6.49612   6.67167   7.00518   7.16871


              NET ATOMIC CHARGES AND DIPOLE CONTRIBUTIONS

  ATOM NO.                 TYPE                        CHARGE      No. of ELECS.   s-Pop       p-Pop       
    1          O(HETATM    1  O1  HET A   1)          -0.500849        6.5008     1.89142     4.60943
    2          O(HETATM    2  O2  HET A   1)          -0.321842        6.3218     1.88108     4.44076
    3          O(HETATM    3  O3  HET A   1)          -0.332621        6.3326     1.88030     4.45232
    4          O(HETATM    4  O4  HET A   1)          -0.333757        6.3338     1.88194     4.45182
    5          O(HETATM    5  O5  HET A   1)          -0.367990        6.3680     1.88104     4.48695
    6          O(HETATM    6  O6  HET A   1)          -0.473384        6.4734     1.87524     4.59814
    7          N(HETATM    7  N   HET A   1)          -0.091186        5.0912     1.53040     3.56079
    8          C(HETATM    8  C1  HET A   1)          -0.058875        4.0589     1.10691     2.95196
    9          C(HETATM    9  C2  HET A   1)           0.136965        3.8630     1.09516     2.76788
   10          C(HETATM   10  C3  HET A   1)          -0.068547        4.0685     1.06288     3.00567
   11          C(HETATM   11  C4  HET A   1)          -0.167871        4.1679     1.08781     3.08006
   12          C(HETATM   12  C5  HET A   1)          -0.003113        4.0031     1.06033     2.94278
   13          C(HETATM   13  C6  HET A   1)          -0.293156        4.2932     1.05582     3.23734
   14          C(HETATM   14  C7  HET A   1)          -0.168010        4.1680     1.05876     3.10925
   15          C(HETATM   15  C8  HET A   1)          -0.448128        4.4481     1.02626     3.42187
   16          C(HETATM   16  C9  HET A   1)          -0.192933        4.1929     1.07597     3.11697
   17          C(HETATM   17  C10 HET A   1)          -0.344323        4.3443     1.07875     3.26557
   18          C(HETATM   18  C11 HET A   1)          -0.219856        4.2199     1.07400     3.14585
   19          C(HETATM   19  C12 HET A   1)           0.628518        3.3715     1.10326     2.26822
   20          C(HETATM   20  C13 HET A   1)           0.135029        3.8650     1.08164     2.78333
   21          C(HETATM   21  C14 HET A   1)          -0.121267        4.1213     1.07346     3.04781
   22          C(HETATM   22  C15 HET A   1)           0.147005        3.8530     1.08346     2.76953
   23          C(HETATM   23  C16 HET A   1)           0.149819        3.8502     1.06506     2.78512
   24          C(HETATM   24  C17 HET A   1)           0.104407        3.8956     1.07547     2.82013
   25          C(HETATM   25  C18 HET A   1)          -0.288250        4.2883     1.06100     3.22725
   26          C(HETATM   26  C19 HET A   1)           0.154228        3.8458     1.13911     2.70667
   27          C(HETATM   27  C20 HET A   1)           0.151760        3.8482     1.12938     2.71886
   28          H(HETATM   28  H1  HET A   1)           0.189373        0.8106     0.81063
   29          H(HETATM   29  H2  HET A   1)           0.162866        0.8371     0.83713
   30          H(HETATM   30 1H4  HET A   1)           0.220072        0.7799     0.77993
   31          H(HETATM   31 2H4  HET A   1)           0.159966        0.8400     0.84003
   32          H(HETATM   32 1H6  HET A   1)           0.175965        0.8240     0.82404
   33          H(HETATM   33 2H6  HET A   1)           0.158505        0.8415     0.84149
   34          H(HETATM   34  H9  HET A   1)           0.194283        0.8057     0.80572
   35          H(HETATM   35 1H10 HET A   1)           0.190370        0.8096     0.80963
   36          H(HETATM   36 2H10 HET A   1)           0.175089        0.8249     0.82491
   37          H(HETATM   37 3H10 HET A   1)           0.171751        0.8282     0.82825
   38          H(HETATM   38  H11 HET A   1)           0.178557        0.8214     0.82144
   39          H(HETATM   39  H14 HET A   1)           0.143411        0.8566     0.85659
   40          H(HETATM   40  H18 HET A   1)           0.159690        0.8403     0.84031
   41          H(HETATM   41 1H19 HET A   1)           0.146867        0.8531     0.85313
   42          H(HETATM   42 2H19 HET A   1)           0.149498        0.8505     0.85050
   43          H(HETATM   43 1H20 HET A   1)           0.136708        0.8633     0.86329
   44          H(HETATM   44 2H20 HET A   1)           0.122236        0.8778     0.87776
   45          H(HETATM   45  H   HET A   1)           0.353021        0.6470     0.64698
 DIPOLE           X         Y         Z       TOTAL
 POINT-CHG.     9.232     6.965    -7.406    13.733
 HYBRID        -0.284    -0.243    -0.208     0.428
 SUM            8.948     6.722    -7.614    13.536


          ATOMIC ORBITAL ELECTRON POPULATIONS

                   Atom                  s        px        py        pz   
   O(HETATM    1  O1  HET A   1)   1.89142   1.29079   1.59993   1.71871
   O(HETATM    2  O2  HET A   1)   1.88108   1.23523   1.31720   1.88833
   O(HETATM    3  O3  HET A   1)   1.88030   1.26214   1.30532   1.88485
   O(HETATM    4  O4  HET A   1)   1.88194   1.29107   1.58458   1.57617
   O(HETATM    5  O5  HET A   1)   1.88104   1.25072   1.62049   1.61574
   O(HETATM    6  O6  HET A   1)   1.87524   1.41571   1.60215   1.58028
   N(HETATM    7  N   HET A   1)   1.53040   1.25665   1.16746   1.13668
   C(HETATM    8  C1  HET A   1)   1.10691   0.92843   0.87102   1.15251
   C(HETATM    9  C2  HET A   1)   1.09516   0.91548   0.95131   0.90109
   C(HETATM   10  C3  HET A   1)   1.06288   0.96754   0.97599   1.06214
   C(HETATM   11  C4  HET A   1)   1.08781   1.01908   0.92369   1.13729
   C(HETATM   12  C5  HET A   1)   1.06033   0.96373   0.96351   1.01555
   C(HETATM   13  C6  HET A   1)   1.05582   0.99522   1.08159   1.16053
   C(HETATM   14  C7  HET A   1)   1.05876   0.97572   1.09020   1.04333
   C(HETATM   15  C8  HET A   1)   1.02626   0.99366   1.16957   1.25863
   C(HETATM   16  C9  HET A   1)   1.07597   0.97621   1.07924   1.06152
   C(HETATM   17  C10 HET A   1)   1.07875   1.19628   1.20237   0.86692
   C(HETATM   18  C11 HET A   1)   1.07400   0.99019   1.07418   1.08149
   C(HETATM   19  C12 HET A   1)   1.10326   0.73211   0.77356   0.76255
   C(HETATM   20  C13 HET A   1)   1.08164   0.91344   0.87335   0.99654
   C(HETATM   21  C14 HET A   1)   1.07346   1.06772   0.99728   0.98281
   C(HETATM   22  C15 HET A   1)   1.08346   0.80603   0.98248   0.98102
   C(HETATM   23  C16 HET A   1)   1.06506   0.78477   1.00621   0.99415
   C(HETATM   24  C17 HET A   1)   1.07547   0.91145   0.94409   0.96459
   C(HETATM   25  C18 HET A   1)   1.06100   0.98382   1.12211   1.12132
   C(HETATM   26  C19 HET A   1)   1.13911   0.86470   0.72403   1.11794
   C(HETATM   27  C20 HET A   1)   1.12938   0.86368   0.94219   0.91299
   H(HETATM   28  H1  HET A   1)   0.81063
   H(HETATM   29  H2  HET A   1)   0.83713
   H(HETATM   30 1H4  HET A   1)   0.77993
   H(HETATM   31 2H4  HET A   1)   0.84003
   H(HETATM   32 1H6  HET A   1)   0.82404
   H(HETATM   33 2H6  HET A   1)   0.84149
   H(HETATM   34  H9  HET A   1)   0.80572
   H(HETATM   35 1H10 HET A   1)   0.80963
   H(HETATM   36 2H10 HET A   1)   0.82491
   H(HETATM   37 3H10 HET A   1)   0.82825
   H(HETATM   38  H11 HET A   1)   0.82144
   H(HETATM   39  H14 HET A   1)   0.85659
   H(HETATM   40  H18 HET A   1)   0.84031
   H(HETATM   41 1H19 HET A   1)   0.85313
   H(HETATM   42 2H19 HET A   1)   0.85050
   H(HETATM   43 1H20 HET A   1)   0.86329
   H(HETATM   44 2H20 HET A   1)   0.87776
   H(HETATM   45  H   HET A   1)   0.64698


                    (SZ)    =    0.500000
                    (S**2)  =    0.885442


          ATOMIC ORBITAL SPIN POPULATIONS

    Atom   Total    s     px     py     pz   
         Atomic
    1  O -0.0007 -0.000 -0.001  0.000 -0.000
    2  O -0.0008 -0.000 -0.000  0.000 -0.001
    3  O  0.0009  0.000 -0.000  0.000  0.001
    4  O  0.0353  0.001 -0.006  0.019  0.021
    5  O -0.0161 -0.001 -0.001 -0.006 -0.009
    6  O  0.0721  0.002  0.001  0.020  0.048
    7  N -0.0001  0.000  0.000 -0.000 -0.000
    8  C  0.0243  0.006  0.004  0.002  0.012
    9  C -0.0226 -0.003 -0.002 -0.008 -0.010
   10  C -0.0072 -0.000 -0.001 -0.000 -0.006
   11  C -0.0009 -0.000  0.000  0.000 -0.001
   12  C  0.0071  0.000  0.000  0.000  0.006
   13  C -0.0002 -0.000  0.000 -0.000 -0.000
   14  C  0.3868  0.011  0.011  0.220  0.146
   15  C  0.2210  0.004 -0.003  0.088  0.132
   16  C  0.0058  0.000  0.000  0.000  0.005
   17  C  0.0006  0.000  0.000  0.000  0.000
   18  C -0.0055 -0.000 -0.000 -0.000 -0.005
   19  C  0.0186 -0.000 -0.001 -0.003  0.023
   20  C -0.0052 -0.000 -0.000 -0.000 -0.004
   21  C -0.3054 -0.011 -0.019 -0.155 -0.120
   22  C  0.0057  0.000  0.000  0.000  0.005
   23  C  0.3103  0.007  0.015  0.150  0.139
   24  C -0.1562 -0.008 -0.013 -0.066 -0.069
   25  C  0.4329  0.012  0.025  0.217  0.179
   26  C -0.0000 -0.000  0.000 -0.000 -0.000
   27  C -0.0022 -0.000  0.000 -0.001 -0.001
   28  H -0.0006 -0.001
   29  H  0.0042  0.004
   30  H  0.0005  0.000
   31  H  0.0000  0.000
   32  H  0.0001  0.000
   33  H  0.0002  0.000
   34  H -0.0002 -0.000
   35  H -0.0000 -0.000
   36  H -0.0000 -0.000
   37  H -0.0000 -0.000
   38  H  0.0002  0.000
   39  H  0.0089  0.009
   40  H -0.0125 -0.013
   41  H  0.0000  0.000
   42  H -0.0000 -0.000
   43  H  0.0004  0.000
   44  H  0.0009  0.001
   45  H -0.0002 -0.000

           DATA FOR GRAPH WRITTEN TO DISK

 **********************
 *                    *
 * JOB ENDED NORMALLY *
 *                    *
 **********************



 TOTAL JOB TIME:            25.11 SECONDS

 == MOPAC DONE ==
