 *******************************************************************************
 **                                                                           **
 **                              MOPAC v22.0.6                                **
 **                                                                           **
 *******************************************************************************
 **          Digital Object Identifier (DOI): 10.5281/zenodo.6511958          **
 **    Visit the DOI location for information on how to cite this program.    **
 *******************************************************************************

                              PM7 CALCULATION RESULTS

 *******************************************************************************
 *  CALCULATION DONE:                                Sun Oct 12 20:04:31 2025  *
 *  PM7        - The PM7 Hamiltonian to be used
 *  PDBOUT     - PRINT GEOMETRY IN PDB FORMAT
 *  RESIDUES   - DETERMINE THE SEQUENCE OF RESIDUES
 *
 *
 *
 *                 CHARGE ON SYSTEM = +1
 *
 *
 *
 *  EF         - USE EF ROUTINE FOR MINIMUM SEARCH
 *  T=         - A TIME OF 172800.0 SECONDS REQUESTED
 *  DUMP=N     - RESTART FILE WRITTEN EVERY 7200.0 SECONDS REQUESTED
 *  NOXYZ      - CARTESIAN COORDINATES NOT TO BE PRINTED
 *  PRNT       - EXTRA PRINTING IN EF ROUTINE
 *  GRAPH      - GENERATE FILE FOR GRAPHICS
 *  COMPFG     - PRINT HEAT OF FORMATION CALC'D IN COMPFG
 *******************************************************************************
PM7 CHARGE=+1 EF NOXYZ PRNT=2 PDBOUT COMPFG GRAPHF
 5,7,17,19-tetraoxa-13-azoniahexacyclo[11.11.0.02,10.04,8.015,23.016,20]tetracosa-1(13),2,4(8),9,14,16(20),21,23-octaene

  ATOM    CHEMICAL      BOND LENGTH      BOND ANGLE     TWIST ANGLE 
 NUMBER    SYMBOL       (ANGSTROMS)      (DEGREES)       (DEGREES) 
   (I)                     NA:I           NB:NA:I       NC:NB:NA:I       NA    NB    NC 
     1       O          0.00000000  *    0.0000000  *    0.0000000  *     0     0     0
     2       O          2.22960800  *    0.0000000  *    0.0000000  *     1     0     0
     3       O         10.10708600  *   98.6970530  *    0.0000000  *     1     2     0
     4       O          2.22975800  *  104.5966550  *  164.8344880  *     3     1     2
     5       N          4.35505000  *   18.5865140  *   -8.0908000  *     3     1     2
     6       C          1.47738300  *  122.3311790  * -168.7366380  *     5     3     1
     7       C          1.38068000  *  117.9032630  *    9.2776260  *     5     3     1
     8       C          1.52100900  *  109.2976940  * -138.2637870  *     6     5     3
     9       C          1.49591500  *  118.6902480  *  177.1022650  *     7     5     3
    10       C          1.42738000  *  117.5192280  *  -16.5591540  *     9     7     5
    11       C          2.39853800  *   26.8938000  *    8.5945040  *     5     3     1
    12       C          7.72841300  *   72.4528590  *    1.1735170  *     2     1     3
    13       C          1.40882800  *  119.7062990  *   -1.4394200  *     7     5     3
    14       C          1.39734400  *  119.9007700  *    1.1501860  *    13     7     5
    15       C          1.41761500  *  123.1842240  *  162.4499740  *     9     7     5
    16       C          1.41067100  *  120.4303260  *  177.1586660  *    10     9     7
    17       C          1.33671500  *   33.8906790  *  159.9670410  *     3     1     2
    18       C          1.33560100  *   70.7651670  *    2.3648270  *     1     2     3
    19       C          1.33546600  *   70.7316830  *   -2.2676140  *     2     1     3
    20       C          1.41819100  *  121.0290350  *  179.5553710  *    14    13     7
    21       C          1.33542900  *   70.7720670  *   -2.8618810  *     4     3     1
    22       C          1.39253700  *  128.4556110  *  179.9848710  *    21     4     3
    23       C          1.39227700  *   36.8046640  *  177.6833000  *     2     1     3
    24       C          1.39221200  *  141.3245870  *  167.5960000  *     3     1     2
    25       H          1.11301900  *  109.2111930  *  104.0339150  *     6     5     3
    26       H          1.11239000  *  111.6609550  *  -15.0174030  *     6     5     3
    27       H          1.11151200  *  112.0920360  *  177.4702230  *     8     6     5
    28       H          1.11178400  *  107.4771770  *   58.2470370  *     8     6     5
    29       H          1.08449400  *  120.2882890  *  175.5398990  *    12     5     3
    30       H          1.08072000  *  121.2470940  *  179.6423300  *    13     7     5
    31       H          1.07975900  *  122.8936180  *    0.7747970  *    15     9     7
    32       H          1.08256700  *  121.6868930  * -179.7272200  *    16    10     9
    33       H          1.08328400  *  120.5733740  *    0.2226070  *    20    14    13
    34       H          1.08206900  *  121.0383340  *    0.0446090  *    22    21     4
    35       H          1.11070400  *  110.0813610  * -119.2526550  *    23     2     1
    36       H          1.11068600  *  110.0912110  *  119.2557060  *    23     2     1
    37       H          1.11066200  *  110.0777950  * -123.7264690  *    24     3     1
    38       H          1.11068700  *  110.0766890  *  114.7933180  *    24     3     1


 General Reference for PM7:
 "Optimization of Parameters for Semiempirical Methods VI: More Modifications to the 
 NDDO Approximations and Re-optimization of Parameters", J. J. P. Stewart, J. Mol. Mod., 1:32, 19 (2013)
 https://link.springer.com/article/10.1007/s00894-012-1667-x

           Empirical Formula: C19 H14 N O4  =    38 atoms



      MOLECULAR POINT GROUP   :   C1  


      RHF CALCULATION, NO. OF DOUBLY OCCUPIED LEVELS = 59


          Geometry optimization using EF

  HEAT OF FORMATION        111.91711337985180    
 PARAMETERS        0.000   0.000   0.000   2.230   0.000   0.000  10.107   1.723
   0.000   2.230   1.826   2.877   4.355   0.324   6.142   1.477   2.135   3.338

   1.381   2.058   0.162   1.521   1.908   3.870   1.496   2.072   3.091   1.427

   2.051   5.994   2.399   0.469   0.150   7.728   1.265   0.020   1.409   2.089

   6.258   1.397   2.093   0.020   1.418   2.150   2.835   1.411   2.102   3.092

   1.337   0.592   2.792   1.336   1.235   0.041   1.335   1.235   6.244   1.418

   2.112   3.134   1.335   1.235   6.233   1.393   2.242   3.141   1.392   0.642

   3.101   1.392   2.467   2.925   1.113   1.906   1.816   1.112   1.949   6.021

   1.112   1.956   3.097   1.112   1.876   1.017   1.084   2.099   3.064   1.081

   2.116   3.135   1.080   2.145   0.014   1.083   2.124   3.146   1.083   2.104

   0.004   1.082   2.113   0.001   1.111   1.921   4.202   1.111   1.921   2.081

   1.111   1.921   4.124   1.111   1.921   2.004
 GRADIENT          0.000   0.000  -0.000-191.152   0.000   0.000  -1.350-187.235
   0.000-132.772  49.359   2.387  26.495 143.172   0.842   1.995 -24.258   3.980

 -14.692  48.764   1.649 -16.462  10.273  13.012  12.377   4.547   7.020   9.145

   5.192   5.924  10.186  32.350  -0.334  31.638-162.842  -9.576   1.945  35.853

  -1.634 -47.306  13.626   0.753  10.740  11.689   2.307  12.640 -10.703  -2.503

 -12.571  70.643   3.643 -29.586-129.808  -0.409 -19.265-125.203   0.225 -16.843

 -43.379  -0.228 -50.264 -75.231   0.001 -30.369 -23.161  -0.041 -30.755 -54.812

  -0.076 -32.576 -54.943  -2.710  -7.430   3.288   6.277  -1.174   2.384  -0.990

   1.604   0.747   2.661  -3.782 -10.866  -4.797 -11.292   4.977  -0.512  -8.255

   5.100  -0.317  -5.104   3.470  -0.225  -3.937   1.043  -0.276  -4.312   1.409

  -0.024  -7.175  -0.018  -0.016   0.442   3.512  -5.357   0.413   3.635   5.332

  -0.012   3.856  -5.403  -0.012   3.847   5.379

          DIAGONAL MATRIX USED AS START HESSIAN

*REMARK   3 HET = Not identified; C 19 H 14 N O 4    =    38 atoms res:    1
 PM7 CHARGE=+1 EF NOXYZ PRNT=2 PDBOUT COMPFG GRAPHF
 5,7,17,19-tetraoxa-13-azoniahexacyclo[11.11.0.02,10.04,8.015,23.016,20]tetracosa-1(13),2,4(8),9,14,16(20),21,23-octaene

  O(HETATM    1  O1  HET A   1)   0.00000000 +1    0.0000000 +1    0.0000000 +1
  O(HETATM    2  O2  HET A   1)   2.22960800 +1    0.0000000 +1    0.0000000 +1     1     0     0
  O(HETATM    3  O3  HET A   1)  10.10708600 +1   98.6970530 +1    0.0000000 +1     1     2     0
  O(HETATM    4  O4  HET A   1)   2.22975800 +1  104.5966550 +1  164.8344880 +1     3     1     2
  N(HETATM    5  N   HET A   1)   4.35505000 +1   18.5865140 +1   -8.0908000 +1     3     1     2
  C(HETATM    6  C1  HET A   1)   1.47738300 +1  122.3311790 +1 -168.7366380 +1     5     3     1
  C(HETATM    7  C2  HET A   1)   1.38068000 +1  117.9032630 +1    9.2776260 +1     5     3     1
  C(HETATM    8  C3  HET A   1)   1.52100900 +1  109.2976940 +1 -138.2637870 +1     6     5     3
  C(HETATM    9  C4  HET A   1)   1.49591500 +1  118.6902480 +1  177.1022650 +1     7     5     3
  C(HETATM   10  C5  HET A   1)   1.42738000 +1  117.5192280 +1  -16.5591540 +1     9     7     5
  C(HETATM   11  C6  HET A   1)   2.39853800 +1   26.8938000 +1    8.5945040 +1     5     3     1
  C(HETATM   12  C7  HET A   1)   7.72841300 +1   72.4528590 +1    1.1735170 +1     2     1     3
  C(HETATM   13  C8  HET A   1)   1.40882800 +1  119.7062990 +1   -1.4394200 +1     7     5     3
  C(HETATM   14  C9  HET A   1)   1.39734400 +1  119.9007700 +1    1.1501860 +1    13     7     5
  C(HETATM   15  C10 HET A   1)   1.41761500 +1  123.1842240 +1  162.4499740 +1     9     7     5
  C(HETATM   16  C11 HET A   1)   1.41067100 +1  120.4303260 +1  177.1586660 +1    10     9     7
  C(HETATM   17  C12 HET A   1)   1.33671500 +1   33.8906790 +1  159.9670410 +1     3     1     2
  C(HETATM   18  C13 HET A   1)   1.33560100 +1   70.7651670 +1    2.3648270 +1     1     2     3
  C(HETATM   19  C14 HET A   1)   1.33546600 +1   70.7316830 +1   -2.2676140 +1     2     1     3
  C(HETATM   20  C15 HET A   1)   1.41819100 +1  121.0290350 +1  179.5553710 +1    14    13     7
  C(HETATM   21  C16 HET A   1)   1.33542900 +1   70.7720670 +1   -2.8618810 +1     4     3     1
  C(HETATM   22  C17 HET A   1)   1.39253700 +1  128.4556110 +1  179.9848710 +1    21     4     3
  C(HETATM   23  C18 HET A   1)   1.39227700 +1   36.8046640 +1  177.6833000 +1     2     1     3
  C(HETATM   24  C19 HET A   1)   1.39221200 +1  141.3245870 +1  167.5960000 +1     3     1     2
  H(HETATM   25 1H1  HET A   1)   1.11301900 +1  109.2111930 +1  104.0339150 +1     6     5     3
  H(HETATM   26 2H1  HET A   1)   1.11239000 +1  111.6609550 +1  -15.0174030 +1     6     5     3
  H(HETATM   27 1H3  HET A   1)   1.11151200 +1  112.0920360 +1  177.4702230 +1     8     6     5
  H(HETATM   28 2H3  HET A   1)   1.11178400 +1  107.4771770 +1   58.2470370 +1     8     6     5
  H(HETATM   29  H7  HET A   1)   1.08449400 +1  120.2882890 +1  175.5398990 +1    12     5     3
  H(HETATM   30  H8  HET A   1)   1.08072000 +1  121.2470940 +1  179.6423300 +1    13     7     5
  H(HETATM   31  H10 HET A   1)   1.07975900 +1  122.8936180 +1    0.7747970 +1    15     9     7
  H(HETATM   32  H11 HET A   1)   1.08256700 +1  121.6868930 +1 -179.7272200 +1    16    10     9
  H(HETATM   33  H15 HET A   1)   1.08328400 +1  120.5733740 +1    0.2226070 +1    20    14    13
  H(HETATM   34  H17 HET A   1)   1.08206900 +1  121.0383340 +1    0.0446090 +1    22    21     4
  H(HETATM   35 1H18 HET A   1)   1.11070400 +1  110.0813610 +1 -119.2526550 +1    23     2     1
  H(HETATM   36 2H18 HET A   1)   1.11068600 +1  110.0912110 +1  119.2557060 +1    23     2     1
  H(HETATM   37 1H19 HET A   1)   1.11066200 +1  110.0777950 +1 -123.7264690 +1    24     3     1
  H(HETATM   38 2H19 HET A   1)   1.11068700 +1  110.0766890 +1  114.7933180 +1    24     3     1

 XPARAM 
  1  1    0.0000  1  2    0.0000  1  3    0.0000  2  1    2.2296  2  2    0.0000
  2  3    0.0000  3  1   10.1071  3  2    1.7226  3  3    0.0000  4  1    2.2298
  4  2    1.8256  4  3    2.8769  5  1    4.3551  5  2    0.3244  5  3    6.1420
  6  1    1.4774  6  2    2.1351  6  3    3.3382  7  1    1.3807  7  2    2.0578
  7  3    0.1619  8  1    1.5210  8  2    1.9076  8  3    3.8700  9  1    1.4959
  9  2    2.0715  9  3    3.0910 10  1    1.4274 10  2    2.0511 10  3    5.9942
 11  1    2.3985 11  2    0.4694 11  3    0.1500 12  1    7.7284 12  2    1.2645
 12  3    0.0205 13  1    1.4088 13  2    2.0893 13  3    6.2581 14  1    1.3973
 14  2    2.0927 14  3    0.0201 15  1    1.4176 15  2    2.1500 15  3    2.8353
 16  1    1.4107 16  2    2.1019 16  3    3.0920 17  1    1.3367 17  2    0.5915
 17  3    2.7920 18  1    1.3356 18  2    1.2351 18  3    0.0413 19  1    1.3355
 19  2    1.2345 19  3    6.2436 20  1    1.4182 20  2    2.1124 20  3    3.1338
 21  1    1.3354 21  2    1.2352 21  3    6.2332 22  1    1.3925 22  2    2.2420
 22  3    3.1413 23  1    1.3923 23  2    0.6424 23  3    3.1012 24  1    1.3922
 24  2    2.4666 24  3    2.9251 25  1    1.1130 25  2    1.9061 25  3    1.8157
 26  1    1.1124 26  2    1.9489 26  3    6.0211 27  1    1.1115 27  2    1.9564
 27  3    3.0974 28  1    1.1118 28  2    1.8758 28  3    1.0166 29  1    1.0845
 29  2    2.0994 29  3    3.0637 30  1    1.0807 30  2    2.1162 30  3    3.1354
 31  1    1.0798 31  2    2.1449 31  3    0.0135 32  1    1.0826 32  2    2.1238
 32  3    3.1464 33  1    1.0833 33  2    2.1044 33  3    0.0039 34  1    1.0821
 34  2    2.1125 34  3    0.0008 35  1    1.1107 35  2    1.9213 35  3    4.2018
 36  1    1.1107 36  2    1.9215 36  3    2.0814 37  1    1.1107 37  2    1.9212
 37  3    4.1238 38  1    1.1107 38  2    1.9212 38  3    2.0035
 grad
       0.00000    0.00001   -0.00000 -191.15196    0.00000    0.00000   -1.35027 -187.23470
       0.00000 -132.77172   49.35944    2.38716   26.49486  143.17208    0.84194    1.99459
     -24.25808    3.98014  -14.69195   48.76409    1.64887  -16.46225   10.27301   13.01247
      12.37727    4.54682    7.02010    9.14490    5.19244    5.92410   10.18562   32.34954
      -0.33382   31.63758 -162.84162   -9.57565    1.94472   35.85323   -1.63424  -47.30610
      13.62594    0.75347   10.73992   11.68919    2.30696   12.63974  -10.70290   -2.50308
     -12.57096   70.64299    3.64254  -29.58626 -129.80812   -0.40942  -19.26478 -125.20282
       0.22531  -16.84259  -43.37859   -0.22764  -50.26382  -75.23051    0.00103  -30.36891
     -23.16068   -0.04087  -30.75513  -54.81162   -0.07640  -32.57638  -54.94285   -2.71014
      -7.42955    3.28771    6.27656   -1.17374    2.38426   -0.98973    1.60370    0.74719
       2.66050   -3.78161  -10.86648   -4.79696  -11.29171    4.97741   -0.51180   -8.25519
       5.09995   -0.31746   -5.10395    3.46958   -0.22471   -3.93724    1.04260   -0.27634
      -4.31237    1.40871   -0.02413   -7.17472   -0.01792   -0.01566    0.44219    3.51207
      -5.35736    0.41311    3.63523    5.33202   -0.01210    3.85572   -5.40333   -0.01223
       3.84704    5.37896
 CYCLE:     1 TIME:   0.031 TIME LEFT:  2.00D  GRAD.:   457.830 HEAT:  111.9171

          HESSIAN HAS  0 NEGATIVE EIGENVALUE(S)
  MIN SEARCH, CORRECT HESSIAN, TRYING PURE NR STEP
 LAMBDA THAT MINIMIZES ALONG ALL MODES =        0.000000000
 PURE NR-STEP HAS LENGTH   0.69745
 LAMBDA THAT MINIMIZES ALONG ALL MODES =     -194.643802723
 P-RFO-STEP   HAS LENGTH   0.50656
 LAMBDA THAT MINIMIZES ALONG ALL MODES =    -1350.028951421
 QA/TRIM-STEP HAS LENGTH   0.20000

  HEAT OF FORMATION        1840.2238976613153    
 PARAMETERS       -0.022   0.002   0.007   2.289  -0.017   0.005  10.097   1.742
  -0.009   2.278   1.789   2.875   4.329   0.228   6.143   1.472   2.146   3.335

   1.379   2.023   0.161   1.522   1.900   3.862   1.485   2.066   3.086   1.420

   2.051   5.990   2.378   0.436   0.153   7.703   1.299   0.022   1.405   2.073

   6.259   1.410   2.077   0.020   1.408   2.140   2.834   1.400   2.105   3.094

   1.328   0.551   2.793   1.336   1.297   0.044   1.335   1.306   6.246   1.420

   2.133   3.134   1.349   1.280   6.235   1.401   2.252   3.141   1.392   0.669

   3.105   1.403   2.493   2.926   1.114   1.903   1.812   1.112   1.949   6.022

   1.109   1.956   3.096   1.111   1.880   1.020   1.088   2.097   3.064   1.083

   2.113   3.136   1.080   2.141   0.014   1.083   2.123   3.147   1.083   2.102

   0.004   1.083   2.111   0.001   1.109   1.920   4.205   1.108   1.919   2.078

   1.109   1.920   4.127   1.109   1.918   2.000
 GRADIENT         -0.000  -0.000  -0.000-316.871   0.000   0.000****************
   0.000****************-416.966****************-871.935 -71.743-225.003  -4.815

-328.708********  28.559 -24.680  22.190  14.7822303.7104027.6843676.862 794.310

4017.669 998.670 304.780 101.744 -17.205  21.5142447.651 458.4333385.673********

 433.7164862.346********  83.927  78.752-194.057  30.9532277.572-829.792-700.342

 170.941-302.763 -11.972 130.707-249.749  45.4202289.506 -11.903-669.3013426.718

4907.798 -97.2674787.947******** 314.2171698.9296324.658-142.716 -52.512  65.131

  -1.704  -6.468  91.924   4.018  -7.234  -1.161   3.108  -5.432 -33.199   2.628

   4.804  -0.935  -1.497  -3.224  -7.329  -6.374  12.576 -43.010   1.608  -5.120

   2.983  -0.100  24.655 -44.577   7.190-238.729 171.070  37.928-129.687 100.105

  -1.285 -85.070  51.417  -2.292   3.414   1.105  -9.132   3.407   3.639   8.077

   5.434  -0.094 -13.089   5.132  -0.252  12.950
       HoF         ACTUAL,  PREDICTED ENERGY CHANGE, RATIO
  1840.2238977  1728.3067843         -66.2587735  -26.0841952
 UNACCEPTABLE RATIO, REJECTING STEP, REDUCING DMAX TO 0.1000
  MIN SEARCH, CORRECT HESSIAN, TRYING PURE NR STEP
 LAMBDA THAT MINIMIZES ALONG ALL MODES =        0.000000000
 PURE NR-STEP HAS LENGTH   0.69745
 LAMBDA THAT MINIMIZES ALONG ALL MODES =     -194.643802723
 P-RFO-STEP   HAS LENGTH   0.50656
 LAMBDA THAT MINIMIZES ALONG ALL MODES =    -3307.154081563
 QA/TRIM-STEP HAS LENGTH   0.10000

  HEAT OF FORMATION        491.81935544437147    
 PARAMETERS       -0.012   0.001   0.003   2.262  -0.008   0.002  10.101   1.732
  -0.004   2.256   1.808   2.876   4.341   0.278   6.142   1.474   2.140   3.337

   1.380   2.041   0.162   1.522   1.904   3.866   1.490   2.069   3.089   1.423

   2.051   5.993   2.387   0.453   0.151   7.714   1.281   0.021   1.407   2.082

   6.259   1.404   2.085   0.020   1.412   2.145   2.835   1.405   2.103   3.093

   1.332   0.572   2.793   1.336   1.265   0.042   1.336   1.269   6.244   1.419

   2.122   3.134   1.343   1.257   6.234   1.397   2.247   3.141   1.392   0.656

   3.103   1.398   2.480   2.926   1.114   1.905   1.814   1.112   1.949   6.021

   1.110   1.956   3.097   1.111   1.878   1.018   1.086   2.098   3.064   1.082

   2.115   3.135   1.080   2.143   0.014   1.083   2.124   3.146   1.083   2.103

   0.004   1.083   2.112   0.001   1.110   1.921   4.203   1.109   1.920   2.080

   1.110   1.920   4.125   1.110   1.920   2.002
 GRADIENT         -0.000   0.000  -0.000 571.809   0.000   0.000******** 231.221
   0.000-477.811********-125.488-300.781********-110.820 -32.110-106.184   4.517

 751.962********-475.838 -20.393  15.355  17.087 808.8224713.9091791.920-361.728

3231.044 271.733 175.203 195.848 -13.734   5.3561728.293 290.995 527.740********

  54.464 926.099********   2.740  12.432-273.999  26.326 847.155********-108.485

  33.859-113.486  -5.430  53.826-276.678  -2.164 917.818 953.993-124.360 469.150

1075.755  -7.630 907.977********  19.717 356.8741105.038  -9.709 -28.368   9.978

   0.890 -20.724  32.263   1.378  -7.417   0.902   4.799  -2.363  -8.310   0.245

   2.701  -0.405   0.566  -3.513  -9.759  -5.476   8.175 -30.534   2.960  -7.664

   4.014  -0.004  16.760 -25.052  -0.069 -81.477  73.349   7.393 -45.585  40.574

  -0.278 -34.298  21.841  -0.669   1.956   2.951  -7.460   1.834   3.030   7.520

   3.099   1.707  -9.469   2.899   1.660   9.368
       HoF         ACTUAL,  PREDICTED ENERGY CHANGE, RATIO
   491.8193554   379.9022421         -36.2484138  -10.4805204
 UNACCEPTABLE RATIO, REJECTING STEP, REDUCING DMAX TO 0.0500
  MIN SEARCH, CORRECT HESSIAN, TRYING PURE NR STEP
 LAMBDA THAT MINIMIZES ALONG ALL MODES =        0.000000000
 PURE NR-STEP HAS LENGTH   0.69745
 LAMBDA THAT MINIMIZES ALONG ALL MODES =     -194.643802723
 P-RFO-STEP   HAS LENGTH   0.50656
 LAMBDA THAT MINIMIZES ALONG ALL MODES =    -7246.462713473
 QA/TRIM-STEP HAS LENGTH   0.05000

  HEAT OF FORMATION        184.87791867140913    
 PARAMETERS       -0.006   0.000   0.002   2.246  -0.004   0.001  10.104   1.727
  -0.002   2.244   1.817   2.877   4.348   0.301   6.142   1.476   2.138   3.338

   1.380   2.050   0.162   1.521   1.906   3.868   1.493   2.070   3.090   1.425

   2.051   5.993   2.393   0.462   0.151   7.721   1.273   0.021   1.408   2.086

   6.258   1.401   2.089   0.020   1.415   2.148   2.835   1.408   2.103   3.092

   1.334   0.582   2.792   1.336   1.250   0.042   1.336   1.252   6.244   1.419

   2.117   3.134   1.339   1.246   6.234   1.395   2.244   3.141   1.392   0.649

   3.102   1.395   2.473   2.925   1.113   1.905   1.815   1.112   1.949   6.021

   1.111   1.956   3.097   1.112   1.877   1.017   1.085   2.099   3.064   1.081

   2.115   3.135   1.080   2.144   0.014   1.083   2.124   3.146   1.083   2.104

   0.004   1.082   2.112   0.001   1.110   1.921   4.203   1.110   1.921   2.081

   1.110   1.921   4.125   1.110   1.921   2.003
 GRADIENT          0.000   0.000  -0.000 277.049   0.000   0.000-259.126 838.516
   0.000-212.781-971.061 -43.342-237.045********  15.528 -13.013 -59.899   5.445

 270.256********-203.516 -18.179  12.415  15.198 155.1011927.037 589.197-208.271

1166.109  62.926 117.406 170.525  -6.782  -2.2001103.153 133.788 161.040-717.606

  16.262 265.876-359.718   1.353  -8.349-182.072  14.719 211.515-595.125  -6.407

   0.590 -18.396  -0.924 -20.133-210.906  -3.131 218.970 382.019 -13.301 113.196

 332.862  -1.863 260.688-430.409   2.057  97.356 327.163  -1.307 -29.731 -19.390

   0.357 -27.227  -7.421  -0.465  -7.533   2.103   5.670  -1.584  -1.681  -0.529

   1.834   0.055   1.634  -3.757 -10.570  -5.186   1.106 -16.593   3.521  -8.173

   4.537  -0.049   7.727 -12.724  -0.510 -33.785  30.880   1.514 -21.039  18.255

  -0.126 -18.075   9.835  -0.252   1.317   3.163  -6.437   1.229   3.295   6.415

   1.691   2.765  -7.471   1.573   2.748   7.405
       HoF         ACTUAL,  PREDICTED ENERGY CHANGE, RATIO
   184.8779187    72.9608053         -18.9262705   -3.8550017
 UNACCEPTABLE RATIO, REJECTING STEP, REDUCING DMAX TO 0.0250
  MIN SEARCH, CORRECT HESSIAN, TRYING PURE NR STEP
 LAMBDA THAT MINIMIZES ALONG ALL MODES =        0.000000000
 PURE NR-STEP HAS LENGTH   0.69745
 LAMBDA THAT MINIMIZES ALONG ALL MODES =     -194.643802723
 P-RFO-STEP   HAS LENGTH   0.50656
 LAMBDA THAT MINIMIZES ALONG ALL MODES =   -15139.325830498
 QA/TRIM-STEP HAS LENGTH   0.02500

  HEAT OF FORMATION        123.68155339201621    
 PARAMETERS       -0.003   0.000   0.001   2.238  -0.002   0.000  10.106   1.725
  -0.001   2.237   1.821   2.877   4.351   0.313   6.142   1.477   2.136   3.338

   1.380   2.054   0.162   1.521   1.907   3.869   1.494   2.071   3.091   1.426

   2.051   5.994   2.395   0.465   0.150   7.725   1.269   0.021   1.408   2.087

   6.258   1.399   2.091   0.020   1.416   2.149   2.835   1.409   2.102   3.092

   1.335   0.587   2.792   1.336   1.242   0.042   1.336   1.243   6.244   1.418

   2.115   3.134   1.337   1.240   6.233   1.394   2.243   3.141   1.392   0.646

   3.102   1.394   2.470   2.925   1.113   1.906   1.815   1.112   1.949   6.021

   1.111   1.956   3.097   1.112   1.876   1.017   1.085   2.099   3.064   1.081

   2.116   3.135   1.080   2.144   0.014   1.083   2.124   3.146   1.083   2.104

   0.004   1.082   2.112   0.001   1.110   1.921   4.202   1.110   1.921   2.081

   1.110   1.921   4.124   1.110   1.921   2.003
 GRADIENT          0.000   0.000  -0.000  53.745   0.000   0.000 -70.863 539.669
   0.000-156.368-351.860 -16.578-130.095********   3.456  -4.809 -40.871   5.044

  91.320******** -84.162 -17.305  11.318  14.109  32.474 812.696 231.135 -87.939

 458.751  22.435  73.539 119.501  -2.584   8.201 597.098 -11.495  64.723-269.528

   6.187  77.021-139.731   1.420  -5.227 -96.438   8.181  71.186-250.797   0.978

  -8.727  27.698   1.443 -33.508-170.997  -1.759  52.863  98.994  -0.471  29.289

 109.176  -0.761  74.511-205.251   0.081  20.860 113.796  -0.224 -30.138 -36.571

   0.131 -29.916 -30.312  -1.545  -7.512   2.730   6.006  -1.354   0.626  -0.823

   1.661   0.397   2.143  -3.780 -10.751  -5.011  -4.225  -7.008   3.149  -8.338

   4.844  -0.133   1.907  -5.169  -0.467 -16.782  14.404   0.273 -11.841   9.157

  -0.080 -11.980   4.619  -0.112   0.897   3.320  -5.922   0.837   3.444   5.894

   0.875   3.283  -6.458   0.809   3.275   6.413
       HoF         ACTUAL,  PREDICTED ENERGY CHANGE, RATIO
   123.6815534    11.7644400          -9.6667079   -1.2170058
 UNACCEPTABLE RATIO, REJECTING STEP, REDUCING DMAX TO 0.0125
  MIN SEARCH, CORRECT HESSIAN, TRYING PURE NR STEP
 LAMBDA THAT MINIMIZES ALONG ALL MODES =        0.000000000
 PURE NR-STEP HAS LENGTH   0.69745
 LAMBDA THAT MINIMIZES ALONG ALL MODES =     -194.643802723
 P-RFO-STEP   HAS LENGTH   0.50656
 LAMBDA THAT MINIMIZES ALONG ALL MODES =   -30932.600412076
 QA/TRIM-STEP HAS LENGTH   0.01250

  HEAT OF FORMATION        112.23920668161009    
 PARAMETERS       -0.002   0.000   0.000   2.234  -0.001   0.000  10.106   1.724
  -0.001   2.233   1.823   2.877   4.353   0.319   6.142   1.477   2.136   3.338

   1.381   2.056   0.162   1.521   1.907   3.870   1.495   2.071   3.091   1.427

   2.051   5.994   2.397   0.467   0.150   7.727   1.267   0.021   1.409   2.088

   6.258   1.398   2.092   0.020   1.417   2.149   2.835   1.410   2.102   3.092

   1.336   0.589   2.792   1.336   1.239   0.041   1.335   1.239   6.244   1.418

   2.114   3.134   1.336   1.238   6.233   1.393   2.243   3.141   1.392   0.644

   3.101   1.393   2.468   2.925   1.113   1.906   1.816   1.112   1.949   6.021

   1.111   1.956   3.097   1.112   1.876   1.017   1.085   2.099   3.064   1.081

   2.116   3.135   1.080   2.145   0.014   1.083   2.124   3.146   1.083   2.104

   0.004   1.082   2.112   0.001   1.111   1.921   4.202   1.111   1.921   2.081

   1.111   1.921   4.124   1.111   1.921   2.003
 GRADIENT          0.000   0.000  -0.000 -64.795   0.000   0.000 -23.159 240.929
   0.000-140.988-127.940  -6.193 -57.281-983.936  -7.945  -1.255 -32.287   4.601

  29.198-565.059 -36.625 -16.876  10.775  13.566  11.854 370.243 104.815 -35.300

 202.221  12.039  44.961  80.922  -0.874  17.872 265.253 -82.038  29.998-100.518

   2.263   7.827 -55.234   1.301   1.027 -44.787   5.062  33.884-117.406  -0.074

 -11.251  49.510   2.581 -33.803-150.082  -0.991   6.976 -21.161   0.759   2.364

  25.042  -0.435   5.418-130.085  -0.109  -7.492  37.165  -0.056 -30.444 -45.531

   0.026 -31.273 -42.386  -2.119  -7.479   3.019   6.154  -1.260   1.557  -0.925

   1.614   0.563   2.399  -3.784 -10.822  -4.910  -7.525  -1.318   2.185  -8.319

   4.970  -0.195  -1.468  -0.992  -0.374  -9.854   7.357  -0.067  -7.875   5.121

  -0.057  -9.423   2.230  -0.058   0.675   3.415  -5.643   0.630   3.540   5.614

   0.444   3.566  -5.934   0.408   3.560   5.900
       HoF         ACTUAL,  PREDICTED ENERGY CHANGE, RATIO
   112.2392067     0.3220933          -4.8846456   -0.0659400
 UNACCEPTABLE RATIO, REJECTING STEP, REDUCING DMAX TO 0.0062
  MIN SEARCH, CORRECT HESSIAN, TRYING PURE NR STEP
 LAMBDA THAT MINIMIZES ALONG ALL MODES =        0.000000000
 PURE NR-STEP HAS LENGTH   0.69745
 LAMBDA THAT MINIMIZES ALONG ALL MODES =     -194.643802723
 P-RFO-STEP   HAS LENGTH   0.50656
 LAMBDA THAT MINIMIZES ALONG ALL MODES =   -62523.026886527
 QA/TRIM-STEP HAS LENGTH   0.00625

  HEAT OF FORMATION        110.75336815271294    
 PARAMETERS       -0.001   0.000   0.000   2.232  -0.000   0.000  10.107   1.723
  -0.000   2.232   1.824   2.877   4.354   0.322   6.142   1.477   2.135   3.338

   1.381   2.057   0.162   1.521   1.907   3.870   1.496   2.071   3.091   1.427

   2.051   5.994   2.398   0.468   0.150   7.727   1.266   0.021   1.409   2.089

   6.258   1.398   2.092   0.020   1.417   2.150   2.835   1.410   2.102   3.092

   1.336   0.590   2.792   1.336   1.237   0.041   1.335   1.237   6.244   1.418

   2.113   3.134   1.336   1.237   6.233   1.393   2.242   3.141   1.392   0.643

   3.101   1.393   2.467   2.925   1.113   1.906   1.816   1.112   1.949   6.021

   1.111   1.956   3.097   1.112   1.876   1.017   1.085   2.099   3.064   1.081

   2.116   3.135   1.080   2.145   0.014   1.083   2.124   3.146   1.083   2.104

   0.004   1.082   2.112   0.001   1.111   1.921   4.202   1.111   1.921   2.081

   1.111   1.921   4.124   1.111   1.921   2.003
 GRADIENT          0.000   0.000  -0.000-125.951   0.000   0.000  -9.363  50.897
   0.000-136.177 -34.302  -1.727 -16.759-404.052  -9.908   0.449 -28.161   4.314

   5.070-245.982 -16.330 -16.661  10.523  13.277   9.435 178.460  52.449 -11.875

  96.593   8.428  28.290  58.014  -0.410  24.282  72.428 -92.411  15.267 -28.843

   0.328 -21.268 -19.111   1.092   5.336 -17.335   3.687  21.248 -60.787  -1.102

 -12.180  60.347   3.133 -32.255-140.175  -0.708  -8.445 -75.235   0.717  -8.083

 -10.833  -0.309 -23.763-100.603  -0.100 -19.474   5.250  -0.024 -30.598 -50.120

  -0.026 -31.893 -48.620  -2.413  -7.459   3.160   6.219  -1.218   1.988  -0.968

   1.607   0.666   2.535  -3.782 -10.845  -4.852  -9.331   1.705   1.259  -8.313

   5.051  -0.247  -3.232   1.214  -0.304  -6.769   4.089  -0.194  -6.062   3.224

  -0.042  -8.251   1.082  -0.034   0.560   3.457  -5.504   0.523   3.581   5.475

   0.218   3.703  -5.672   0.198   3.696   5.643
       HoF         ACTUAL,  PREDICTED ENERGY CHANGE, RATIO
   110.7533682    -1.1637452          -2.4551966    0.4739927
     STEPSIZE USED IS  0.00625
 CALCULATED STEP
    -0.000827  0.000040  0.000190  0.002182 -0.000496  0.000118 -0.000395  0.000580
    -0.000252  0.001790 -0.001086 -0.000043 -0.000936 -0.002827  0.000013 -0.000215
     0.000307 -0.000065 -0.000056 -0.001018 -0.000021  0.000043 -0.000219 -0.000197
    -0.000398 -0.000169 -0.000111 -0.000272  0.000005 -0.000090 -0.000776 -0.000970
     0.000076 -0.000953  0.001009  0.000028 -0.000143 -0.000462  0.000029  0.000461
    -0.000472 -0.000009 -0.000363 -0.000281 -0.000038 -0.000396  0.000091  0.000042
    -0.000320 -0.001202  0.000035  0.000005  0.001818  0.000062  0.000014  0.002108
     0.000051  0.000071  0.000610  0.000005  0.000501  0.001314  0.000055  0.000311
     0.000295 -0.000005 -0.000014  0.000795  0.000089  0.000386  0.000787  0.000024
     0.000038 -0.000079 -0.000094 -0.000024  0.000007  0.000021 -0.000091 -0.000017
    -0.000037 -0.000028  0.000133  0.000083  0.000120 -0.000083  0.000011  0.000074
    -0.000083  0.000008  0.000001 -0.000110  0.000006  0.000007 -0.000019  0.000007
    -0.000014 -0.000078  0.000004  0.000032 -0.000055  0.000003 -0.000066 -0.000042
     0.000091 -0.000082 -0.000080 -0.000079 -0.000060 -0.000048  0.000092 -0.000076
    -0.000084 -0.000080
     NEW TRUST RADIUS =  0.00625

     HESSIAN IS BEING UPDATED USING THE BFGS UPDATE

*REMARK   3 HET = Not identified; C 19 H 14 N O 4    =    38 atoms res:    1
 PM7 CHARGE=+1 EF NOXYZ PRNT=2 PDBOUT COMPFG GRAPHF
 5,7,17,19-tetraoxa-13-azoniahexacyclo[11.11.0.02,10.04,8.015,23.016,20]tetracosa-1(13),2,4(8),9,14,16(20),21,23-octaene

  O(HETATM    1  O1  HET A   1)  -0.00082740 +1    0.0000398 +1    0.0001902 +1
  O(HETATM    2  O2  HET A   1)   2.23178978 +1   -0.0284453 +1    0.0067847 +1     1     0     0
  O(HETATM    3  O3  HET A   1)  10.10669089 +1   98.7302756 +1   -0.0144380 +1     1     2     0
  O(HETATM    4  O4  HET A   1)   2.23154781 +1  104.5344530 +1  164.8320023 +1     3     1     2
  N(HETATM    5  N   HET A   1)   4.35411389 +1   18.4245450 +1   -8.0900686 +1     3     1     2
  C(HETATM    6  C1  HET A   1)   1.47716808 +1  122.3487466 +1 -168.7403770 +1     5     3     1
  C(HETATM    7  C2  HET A   1)   1.38062429 +1  117.8449623 +1    9.2764312 +1     5     3     1
  C(HETATM    8  C3  HET A   1)   1.52105226 +1  109.2851287 +1 -138.2750811 +1     6     5     3
  C(HETATM    9  C4  HET A   1)   1.49551669 +1  118.6805794 +1  177.0959333 +1     7     5     3
  C(HETATM   10  C5  HET A   1)   1.42710832 +1  117.5195128 +1  -16.5643062 +1     9     7     5
  C(HETATM   11  C6  HET A   1)   2.39776194 +1   26.8382295 +1    8.5988380 +1     5     3     1
  C(HETATM   12  C7  HET A   1)   7.72746006 +1   72.5106717 +1    1.1750979 +1     2     1     3
  C(HETATM   13  C8  HET A   1)   1.40868483 +1  119.6798145 +1   -1.4377666 +1     7     5     3
  C(HETATM   14  C9  HET A   1)   1.39780502 +1  119.8737403 +1    1.1496652 +1    13     7     5
  C(HETATM   15  C10 HET A   1)   1.41725164 +1  123.1681406 +1  162.4478089 +1     9     7     5
  C(HETATM   16  C11 HET A   1)   1.41027486 +1  120.4355424 +1  177.1610676 +1    10     9     7
  C(HETATM   17  C12 HET A   1)   1.33639521 +1   33.8218200 +1  159.9690291 +1     3     1     2
  C(HETATM   18  C13 HET A   1)   1.33560635 +1   70.8693449 +1    2.3683527 +1     1     2     3
  C(HETATM   19  C14 HET A   1)   1.33547960 +1   70.8524461 +1   -2.2646659 +1     2     1     3
  C(HETATM   20  C15 HET A   1)   1.41826230 +1  121.0640080 +1  179.5556468 +1    14    13     7
  C(HETATM   21  C16 HET A   1)   1.33593046 +1   70.8473647 +1   -2.8587303 +1     4     3     1
  C(HETATM   22  C17 HET A   1)   1.39284824 +1  128.4725348 +1  179.9845811 +1    21     4     3
  C(HETATM   23  C18 HET A   1)   1.39226250 +1   36.8502310 +1  177.6884253 +1     2     1     3
  C(HETATM   24  C19 HET A   1)   1.39259847 +1  141.3696845 +1  167.5973932 +1     3     1     2
  H(HETATM   25 1H1  HET A   1)   1.11305693 +1  109.2066879 +1  104.0285436 +1     6     5     3
  H(HETATM   26 2H1  HET A   1)   1.11236557 +1  111.6613529 +1  -15.0161783 +1     6     5     3
  H(HETATM   27 1H3  HET A   1)   1.11142097 +1  112.0910891 +1  177.4681064 +1     8     6     5
  H(HETATM   28 2H3  HET A   1)   1.11175632 +1  107.4847688 +1   58.2518110 +1     8     6     5
  H(HETATM   29  H7  HET A   1)   1.08461427 +1  120.2835571 +1  175.5405533 +1    12     5     3
  H(HETATM   30  H8  HET A   1)   1.08079404 +1  121.2423332 +1  179.6427922 +1    13     7     5
  H(HETATM   31  H10 HET A   1)   1.07976024 +1  122.8873143 +1    0.7751469 +1    15     9     7
  H(HETATM   32  H11 HET A   1)   1.08257362 +1  121.6858251 +1 -179.7268037 +1    16    10     9
  H(HETATM   33  H15 HET A   1)   1.08327028 +1  120.5689223 +1    0.2228115 +1    20    14    13
  H(HETATM   34  H17 HET A   1)   1.08210080 +1  121.0351805 +1    0.0447985 +1    22    21     4
  H(HETATM   35 1H18 HET A   1)   1.11063797 +1  110.0789746 +1 -119.2474129 +1    23     2     1
  H(HETATM   36 2H18 HET A   1)   1.11060351 +1  110.0866557 +1  119.2511835 +1    23     2     1
  H(HETATM   37 1H19 HET A   1)   1.11060249 +1  110.0750206 +1 -123.7211848 +1    24     3     1
  H(HETATM   38 2H19 HET A   1)   1.11061057 +1  110.0718656 +1  114.7887528 +1    24     3     1

 XPARAM 
  1  1   -0.0008  1  2    0.0000  1  3    0.0002  2  1    2.2318  2  2   -0.0005
  2  3    0.0001  3  1   10.1067  3  2    1.7232  3  3   -0.0003  4  1    2.2315
  4  2    1.8245  4  3    2.8769  5  1    4.3541  5  2    0.3216  5  3    6.1420
  6  1    1.4772  6  2    2.1354  6  3    3.3381  7  1    1.3806  7  2    2.0568
  7  3    0.1619  8  1    1.5211  8  2    1.9074  8  3    3.8698  9  1    1.4955
  9  2    2.0714  9  3    3.0909 10  1    1.4271 10  2    2.0511 10  3    5.9941
 11  1    2.3978 11  2    0.4684 11  3    0.1501 12  1    7.7275 12  2    1.2655
 12  3    0.0205 13  1    1.4087 13  2    2.0888 13  3    6.2581 14  1    1.3978
 14  2    2.0922 14  3    0.0201 15  1    1.4173 15  2    2.1497 15  3    2.8352
 16  1    1.4103 16  2    2.1020 16  3    3.0920 17  1    1.3364 17  2    0.5903
 17  3    2.7920 18  1    1.3356 18  2    1.2369 18  3    0.0413 19  1    1.3355
 19  2    1.2366 19  3    6.2437 20  1    1.4183 20  2    2.1130 20  3    3.1338
 21  1    1.3359 21  2    1.2365 21  3    6.2333 22  1    1.3928 22  2    2.2423
 22  3    3.1413 23  1    1.3923 23  2    0.6432 23  3    3.1012 24  1    1.3926
 24  2    2.4674 24  3    2.9251 25  1    1.1131 25  2    1.9060 25  3    1.8156
 26  1    1.1124 26  2    1.9489 26  3    6.0211 27  1    1.1114 27  2    1.9564
 27  3    3.0974 28  1    1.1118 28  2    1.8760 28  3    1.0167 29  1    1.0846
 29  2    2.0993 29  3    3.0638 30  1    1.0808 30  2    2.1161 30  3    3.1354
 31  1    1.0798 31  2    2.1448 31  3    0.0135 32  1    1.0826 32  2    2.1238
 32  3    3.1464 33  1    1.0833 33  2    2.1043 33  3    0.0039 34  1    1.0821
 34  2    2.1125 34  3    0.0008 35  1    1.1106 35  2    1.9212 35  3    4.2019
 36  1    1.1106 36  2    1.9214 36  3    2.0813 37  1    1.1106 37  2    1.9212
 37  3    4.1238 38  1    1.1106 38  2    1.9211 38  3    2.0034
 grad
       0.00000    0.00001   -0.00000 -125.95099    0.00000    0.00000   -9.36336   50.89692
       0.00000 -136.17749  -34.30211   -1.72654  -16.75927 -404.05158   -9.90797    0.44852
     -28.16129    4.31412    5.07026 -245.98211  -16.32950  -16.66096   10.52310   13.27730
       9.43520  178.45962   52.44909  -11.87475   96.59267    8.42789   28.28993   58.01374
      -0.41031   24.28184   72.42829  -92.41059   15.26744  -28.84323    0.32810  -21.26771
     -19.11120    1.09206    5.33643  -17.33534    3.68733   21.24777  -60.78699   -1.10218
     -12.17962   60.34726    3.13286  -32.25525 -140.17498   -0.70831   -8.44498  -75.23476
       0.71714   -8.08268  -10.83256   -0.30897  -23.76297 -100.60323   -0.10033  -19.47426
       5.24962   -0.02396  -30.59847  -50.11987   -0.02619  -31.89294  -48.61962   -2.41307
      -7.45935    3.16008    6.21867   -1.21832    1.98836   -0.96784    1.60739    0.66578
       2.53508   -3.78173  -10.84486   -4.85205   -9.33082    1.70540    1.25919   -8.31284
       5.05131   -0.24659   -3.23178    1.21380   -0.30376   -6.76927    4.08863   -0.19441
      -6.06162    3.22426   -0.04181   -8.25092    1.08218   -0.03418    0.56031    3.45727
      -5.50375    0.52350    3.58079    5.47550    0.21783    3.70306   -5.67219    0.19820
       3.69594    5.64320
 CYCLE:     2 TIME:   0.117 TIME LEFT:  2.00D  GRAD.:   618.374 HEAT:  110.7534

          HESSIAN HAS  0 NEGATIVE EIGENVALUE(S)
  MIN SEARCH, CORRECT HESSIAN, TRYING PURE NR STEP
 LAMBDA THAT MINIMIZES ALONG ALL MODES =        0.000000000
 PURE NR-STEP HAS LENGTH   1.88273
 LAMBDA THAT MINIMIZES ALONG ALL MODES =     -244.462433883
 P-RFO-STEP   HAS LENGTH   0.76350
 LAMBDA THAT MINIMIZES ALONG ALL MODES =   -53696.495801763
 QA/TRIM-STEP HAS LENGTH   0.00625

  HEAT OF FORMATION        108.69353918156412    
 PARAMETERS       -0.002   0.000   0.000   2.234  -0.001   0.000  10.106   1.723
  -0.001   2.234   1.824   2.877   4.354   0.323   6.142   1.477   2.136   3.338

   1.380   2.058   0.162   1.521   1.907   3.870   1.495   2.069   3.090   1.427

   2.050   5.994   2.397   0.467   0.150   7.726   1.266   0.021   1.408   2.088

   6.258   1.398   2.092   0.020   1.417   2.149   2.835   1.410   2.102   3.092

   1.336   0.589   2.792   1.336   1.239   0.041   1.335   1.238   6.244   1.418

   2.113   3.134   1.336   1.238   6.233   1.393   2.242   3.141   1.392   0.644

   3.101   1.393   2.468   2.925   1.113   1.906   1.816   1.112   1.949   6.021

   1.111   1.956   3.097   1.112   1.876   1.017   1.085   2.099   3.064   1.081

   2.116   3.135   1.080   2.145   0.014   1.083   2.124   3.146   1.083   2.104

   0.004   1.082   2.112   0.001   1.111   1.921   4.202   1.111   1.921   2.081

   1.111   1.921   4.124   1.111   1.921   2.003
 GRADIENT          0.000   0.000  -0.000-138.048   0.000   0.000   6.828   1.306
   0.000-121.018  -0.072   0.274 -11.689 -14.278  11.061  -3.335  -6.565   0.263

 -29.890  -7.862   3.643 -13.935   3.198   2.199   2.082  -5.112   3.043  10.981

  -3.507   5.527  26.509  42.873  -0.706  22.503  12.644  66.445  11.761  -2.552

  -0.588 -31.218  -7.162   0.795   8.195   7.045   2.556   7.991 -13.815  -2.247

 -13.563  51.793   2.697 -33.256-105.134  -0.440 -25.468 -94.312   0.470 -10.882

 -19.939  -0.407 -32.511 -75.136   0.243 -20.067  -7.087  -0.149 -30.332 -45.518

  -0.063 -31.609 -43.106  -2.119  -7.462   3.055   6.215  -1.237   1.938  -0.896

   0.790   1.168   3.355  -4.437 -10.554  -5.283  -9.748   2.019  -1.016  -8.194

   4.976  -0.336  -4.983   3.303  -0.253  -4.540   1.727  -0.251  -5.690   2.992

   0.015  -7.520   0.314  -0.001   0.646   3.406  -5.641   0.596   3.531   5.614

   0.380   3.618  -5.859   0.361   3.602   5.838
       HoF         ACTUAL,  PREDICTED ENERGY CHANGE, RATIO
   108.6935392    -2.0598290          -2.4691831    0.8342148
     STEPSIZE USED IS  0.00625
 CALCULATED STEP
    -0.000767  0.000020  0.000014  0.002204 -0.000328 -0.000091 -0.000405 -0.000149
    -0.000360  0.002134 -0.000685  0.000008 -0.000520  0.001148 -0.000083 -0.000265
     0.000132 -0.000016 -0.000280  0.001480  0.000188  0.000055 -0.000577 -0.000196
    -0.000464 -0.001937 -0.000470 -0.000133 -0.001370 -0.000073 -0.000940 -0.001137
    -0.000055 -0.001015 -0.000049  0.000664 -0.000280 -0.000593  0.000075  0.000268
    -0.000141  0.000045 -0.000412 -0.000283  0.000010 -0.000564  0.000304  0.000097
    -0.000243 -0.001526 -0.000075  0.000073  0.002333  0.000031  0.000018  0.001409
     0.000013 -0.000017  0.000189  0.000068  0.000455  0.001137  0.000022  0.000232
    -0.000147  0.000071  0.000115  0.000648 -0.000011  0.000383  0.000645  0.000130
     0.000041 -0.000125 -0.000098 -0.000024 -0.000168  0.000038 -0.000110 -0.000097
    -0.000029 -0.000038  0.000148  0.000108  0.000117 -0.000146  0.000016  0.000080
    -0.000178  0.000027 -0.000030 -0.000082  0.000027  0.000024 -0.000129  0.000027
    -0.000016 -0.000079  0.000023  0.000032 -0.000047  0.000023 -0.000077 -0.000165
     0.000120 -0.000102 -0.000136 -0.000081 -0.000071 -0.000169  0.000122 -0.000096
    -0.000138 -0.000083
     NEW TRUST RADIUS =  0.00884
*REMARK   3 HET = Not identified; C 19 H 14 N O 4    =    38 atoms res:    1
 PM7 CHARGE=+1 EF NOXYZ PRNT=2 PDBOUT COMPFG GRAPHF
 5,7,17,19-tetraoxa-13-azoniahexacyclo[11.11.0.02,10.04,8.015,23.016,20]tetracosa-1(13),2,4(8),9,14,16(20),21,23-octaene

  O(HETATM    1  O1  HET A   1)  -0.00159486 +1    0.0000594 +1    0.0002044 +1
  O(HETATM    2  O2  HET A   1)   2.23399386 +1   -0.0472217 +1    0.0015662 +1     1     0     0
  O(HETATM    3  O3  HET A   1)  10.10628560 +1   98.7217558 +1   -0.0350845 +1     1     2     0
  O(HETATM    4  O4  HET A   1)   2.23368228 +1  104.4952218 +1  164.8324831 +1     3     1     2
  N(HETATM    5  N   HET A   1)   4.35359419 +1   18.4903131 +1   -8.0948072 +1     3     1     2
  C(HETATM    6  C1  HET A   1)   1.47690283 +1  122.3563370 +1 -168.7412716 +1     5     3     1
  C(HETATM    7  C2  HET A   1)   1.38034465 +1  117.9297379 +1    9.2871855 +1     5     3     1
  C(HETATM    8  C3  HET A   1)   1.52110734 +1  109.2520591 +1 -138.2863364 +1     6     5     3
  C(HETATM    9  C4  HET A   1)   1.49505290 +1  118.5695766 +1  177.0689874 +1     7     5     3
  C(HETATM   10  C5  HET A   1)   1.42697487 +1  117.4410055 +1  -16.5684888 +1     9     7     5
  C(HETATM   11  C6  HET A   1)   2.39682205 +1   26.7730741 +1    8.5956984 +1     5     3     1
  C(HETATM   12  C7  HET A   1)   7.72644518 +1   72.5078446 +1    1.2131153 +1     2     1     3
  C(HETATM   13  C8  HET A   1)   1.40840449 +1  119.6458223 +1   -1.4334715 +1     7     5     3
  C(HETATM   14  C9  HET A   1)   1.39807317 +1  119.8656724 +1    1.1522649 +1    13     7     5
  C(HETATM   15  C10 HET A   1)   1.41683951 +1  123.1519518 +1  162.4483550 +1     9     7     5
  C(HETATM   16  C11 HET A   1)   1.40971093 +1  120.4529521 +1  177.1666046 +1    10     9     7
  C(HETATM   17  C12 HET A   1)   1.33615197 +1   33.7343849 +1  159.9647111 +1     3     1     2
  C(HETATM   18  C13 HET A   1)   1.33567971 +1   71.0030310 +1    2.3701459 +1     1     2     3
  C(HETATM   19  C14 HET A   1)   1.33549731 +1   70.9331684 +1   -2.2639455 +1     2     1     3
  C(HETATM   20  C15 HET A   1)   1.41824516 +1  121.0748216 +1  179.5595152 +1    14    13     7
  C(HETATM   21  C16 HET A   1)   1.33638566 +1   70.9125098 +1   -2.8574753 +1     4     3     1
  C(HETATM   22  C17 HET A   1)   1.39308047 +1  128.4640902 +1  179.9886403 +1    21     4     3
  C(HETATM   23  C18 HET A   1)   1.39237705 +1   36.8873648 +1  177.6878136 +1     2     1     3
  C(HETATM   24  C19 HET A   1)   1.39298104 +1  141.4066546 +1  167.6048173 +1     3     1     2
  H(HETATM   25 1H1  HET A   1)   1.11309767 +1  109.1995184 +1  104.0229548 +1     6     5     3
  H(HETATM   26 2H1  HET A   1)   1.11234184 +1  111.6517389 +1  -15.0140284 +1     6     5     3
  H(HETATM   27 1H3  HET A   1)   1.11131146 +1  112.0855219 +1  177.4664480 +1     8     6     5
  H(HETATM   28 2H3  HET A   1)   1.11171881 +1  107.4932469 +1   58.2579942 +1     8     6     5
  H(HETATM   29  H7  HET A   1)   1.08473145 +1  120.2751702 +1  175.5414649 +1    12     5     3
  H(HETATM   30  H8  HET A   1)   1.08087397 +1  121.2321591 +1  179.6443649 +1    13     7     5
  H(HETATM   31  H10 HET A   1)   1.07972979 +1  122.8826027 +1    0.7767210 +1    15     9     7
  H(HETATM   32  H11 HET A   1)   1.08259806 +1  121.6784098 +1 -179.7252750 +1    16    10     9
  H(HETATM   33  H15 HET A   1)   1.08325468 +1  120.5643744 +1    0.2241044 +1    20    14    13
  H(HETATM   34  H17 HET A   1)   1.08213260 +1  121.0325106 +1    0.0460904 +1    22    21     4
  H(HETATM   35 1H18 HET A   1)   1.11056053 +1  110.0695270 +1 -119.2405476 +1    23     2     1
  H(HETATM   36 2H18 HET A   1)   1.11050180 +1  110.0788622 +1  119.2465149 +1    23     2     1
  H(HETATM   37 1H19 HET A   1)   1.11053157 +1  110.0653223 +1 -123.7142093 +1    24     3     1
  H(HETATM   38 2H19 HET A   1)   1.11051493 +1  110.0639606 +1  114.7839736 +1    24     3     1

 XPARAM 
  1  1   -0.0016  1  2    0.0001  1  3    0.0002  2  1    2.2340  2  2   -0.0008
  2  3    0.0000  3  1   10.1063  3  2    1.7230  3  3   -0.0006  4  1    2.2337
  4  2    1.8238  4  3    2.8769  5  1    4.3536  5  2    0.3227  5  3    6.1419
  6  1    1.4769  6  2    2.1355  6  3    3.3381  7  1    1.3803  7  2    2.0583
  7  3    0.1621  8  1    1.5211  8  2    1.9068  8  3    3.8696  9  1    1.4951
  9  2    2.0694  9  3    3.0904 10  1    1.4270 10  2    2.0497 10  3    5.9940
 11  1    2.3968 11  2    0.4673 11  3    0.1500 12  1    7.7264 12  2    1.2655
 12  3    0.0212 13  1    1.4084 13  2    2.0882 13  3    6.2582 14  1    1.3981
 14  2    2.0921 14  3    0.0201 15  1    1.4168 15  2    2.1494 15  3    2.8353
 16  1    1.4097 16  2    2.1023 16  3    3.0921 17  1    1.3362 17  2    0.5888
 17  3    2.7919 18  1    1.3357 18  2    1.2392 18  3    0.0414 19  1    1.3355
 19  2    1.2380 19  3    6.2437 20  1    1.4182 20  2    2.1132 20  3    3.1339
 21  1    1.3364 21  2    1.2377 21  3    6.2333 22  1    1.3931 22  2    2.2421
 22  3    3.1414 23  1    1.3924 23  2    0.6438 23  3    3.1012 24  1    1.3930
 24  2    2.4680 24  3    2.9253 25  1    1.1131 25  2    1.9059 25  3    1.8155
 26  1    1.1123 26  2    1.9487 26  3    6.0211 27  1    1.1113 27  2    1.9563
 27  3    3.0974 28  1    1.1117 28  2    1.8761 28  3    1.0168 29  1    1.0847
 29  2    2.0992 29  3    3.0638 30  1    1.0809 30  2    2.1159 30  3    3.1354
 31  1    1.0797 31  2    2.1447 31  3    0.0136 32  1    1.0826 32  2    2.1237
 32  3    3.1464 33  1    1.0833 33  2    2.1042 33  3    0.0039 34  1    1.0821
 34  2    2.1124 34  3    0.0008 35  1    1.1106 35  2    1.9211 35  3    4.2020
 36  1    1.1105 36  2    1.9212 36  3    2.0812 37  1    1.1105 37  2    1.9210
 37  3    4.1240 38  1    1.1105 38  2    1.9210 38  3    2.0034
 grad
       0.00000    0.00001   -0.00000 -138.04835    0.00000    0.00000    6.82817    1.30607
       0.00000 -121.01778   -0.07238    0.27386  -11.68926  -14.27848   11.06082   -3.33495
      -6.56472    0.26334  -29.88971   -7.86243    3.64329  -13.93521    3.19813    2.19887
       2.08177   -5.11223    3.04298   10.98102   -3.50724    5.52730   26.50939   42.87261
      -0.70604   22.50293   12.64386   66.44479   11.76062   -2.55238   -0.58797  -31.21767
      -7.16245    0.79469    8.19477    7.04515    2.55566    7.99121  -13.81466   -2.24716
     -13.56271   51.79259    2.69652  -33.25611 -105.13379   -0.44024  -25.46751  -94.31198
       0.46965  -10.88238  -19.93943   -0.40692  -32.51126  -75.13607    0.24341  -20.06694
      -7.08701   -0.14940  -30.33210  -45.51756   -0.06274  -31.60878  -43.10556   -2.11941
      -7.46226    3.05526    6.21465   -1.23654    1.93777   -0.89611    0.79011    1.16826
       3.35525   -4.43694  -10.55370   -5.28339   -9.74765    2.01927   -1.01596   -8.19441
       4.97646   -0.33644   -4.98333    3.30284   -0.25319   -4.53954    1.72709   -0.25051
      -5.68989    2.99224    0.01453   -7.51969    0.31428   -0.00129    0.64552    3.40616
      -5.64079    0.59557    3.53071    5.61428    0.37956    3.61832   -5.85917    0.36120
       3.60210    5.83798
 CYCLE:     3 TIME:   0.023 TIME LEFT:  2.00D  GRAD.:   289.383 HEAT:  108.6935

          HESSIAN HAS  0 NEGATIVE EIGENVALUE(S)
  MIN SEARCH, CORRECT HESSIAN, TRYING PURE NR STEP
 LAMBDA THAT MINIMIZES ALONG ALL MODES =        0.000000000
 PURE NR-STEP HAS LENGTH   1.02593
 LAMBDA THAT MINIMIZES ALONG ALL MODES =     -152.684705862
 P-RFO-STEP   HAS LENGTH   0.60860
 LAMBDA THAT MINIMIZES ALONG ALL MODES =   -29096.319776414
 QA/TRIM-STEP HAS LENGTH   0.00884

  HEAT OF FORMATION        107.18428469423088    
 PARAMETERS       -0.002  -0.000   0.000   2.238  -0.001  -0.000  10.105   1.723
  -0.000   2.237   1.823   2.877   4.353   0.323   6.142   1.476   2.135   3.338

   1.381   2.059   0.162   1.521   1.906   3.870   1.494   2.069   3.090   1.426

   2.049   5.994   2.395   0.466   0.150   7.725   1.265   0.019   1.407   2.087

   6.258   1.399   2.092   0.020   1.416   2.149   2.835   1.409   2.102   3.092

   1.336   0.587   2.792   1.336   1.243   0.041   1.336   1.240   6.244   1.418

   2.113   3.134   1.337   1.239   6.233   1.393   2.242   3.142   1.393   0.645

   3.101   1.393   2.469   2.926   1.113   1.906   1.815   1.112   1.948   6.021

   1.111   1.956   3.097   1.112   1.876   1.017   1.085   2.099   3.064   1.081

   2.116   3.135   1.080   2.145   0.014   1.083   2.123   3.146   1.083   2.104

   0.004   1.082   2.112   0.001   1.110   1.921   4.202   1.110   1.921   2.081

   1.110   1.921   4.124   1.110   1.921   2.003
 GRADIENT          0.000   0.000  -0.000-118.300   0.000   0.000   7.953  -0.129
   0.000-103.366  14.032   1.396 -10.541  35.480 -72.003  -4.281  -1.533  -0.330

 -32.528   4.057  11.498 -13.484   1.476   0.112   1.590 -15.715   0.743  11.003

  -7.646   5.748  23.121  25.199   0.481  18.633   2.380-519.245   8.554  -5.475

   3.857 -32.159 -10.985   3.177   6.604  10.450   2.428   4.661 -13.993  -2.389

 -14.282  34.855   2.010 -33.850 -81.436  -0.392 -29.079 -74.311   0.311 -11.597

 -18.263  -0.667 -34.192 -52.379   0.736 -17.019 -11.824  -0.369 -29.791 -38.031

  -0.065 -31.267 -36.031  -1.813  -7.448   3.106   6.273  -1.342   1.818  -1.092

   0.506   1.207   3.463  -4.521 -10.550  -5.316 -10.498   2.720   6.528  -8.160

   4.832  -0.006  -5.371   3.628  -0.227  -4.834   1.973  -0.267  -5.921   3.403

   0.030  -7.014  -0.312   0.064   0.761   3.313  -5.861   0.726   3.447   5.835

   0.530   3.483  -6.075   0.493   3.499   6.070
       HoF         ACTUAL,  PREDICTED ENERGY CHANGE, RATIO
   107.1842847    -1.5092545          -2.2863801    0.6601066
     STEPSIZE USED IS  0.00884
 CALCULATED STEP
    -0.000672 -0.000175 -0.000113  0.004000 -0.000118 -0.000080 -0.000924 -0.000008
     0.000287  0.003357 -0.000499  0.000177 -0.000324 -0.000103 -0.000367 -0.000550
    -0.000293  0.000178  0.000362  0.000302  0.000068 -0.000187 -0.000710  0.000080
    -0.000733 -0.000459  0.000041 -0.001043 -0.000814 -0.000013 -0.001485 -0.001590
     0.000016 -0.001369 -0.000468 -0.002015 -0.001089 -0.000786  0.000202  0.000434
     0.000131  0.000156 -0.000929 -0.000693  0.000102 -0.000935  0.000002  0.000260
    -0.000168 -0.002238 -0.000099  0.000518  0.003480  0.000090  0.000171  0.002305
     0.000058 -0.000288  0.000164  0.000200  0.000421  0.001687  0.000067  0.000023
    -0.000277  0.000207  0.000396  0.001050  0.000003  0.000409  0.000990  0.000303
     0.000068 -0.000206 -0.000168 -0.000157 -0.000318  0.000077 -0.000217 -0.000187
    -0.000067 -0.000032  0.000287  0.000225  0.000140 -0.000215  0.000085  0.000087
    -0.000319  0.000064 -0.000012 -0.000149  0.000062 -0.000035 -0.000210  0.000062
     0.000013 -0.000139  0.000052  0.000075 -0.000048  0.000053 -0.000214 -0.000303
     0.000239 -0.000205 -0.000232 -0.000147 -0.000205 -0.000308  0.000246 -0.000197
    -0.000231 -0.000154
     NEW TRUST RADIUS =  0.01250
*REMARK   3 HET = Not identified; C 19 H 14 N O 4    =    38 atoms res:    1
 PM7 CHARGE=+1 EF NOXYZ PRNT=2 PDBOUT COMPFG GRAPHF
 5,7,17,19-tetraoxa-13-azoniahexacyclo[11.11.0.02,10.04,8.015,23.016,20]tetracosa-1(13),2,4(8),9,14,16(20),21,23-octaene

  O(HETATM    1  O1  HET A   1)  -0.00226646 +1   -0.0001157 +1    0.0000912 +1
  O(HETATM    2  O2  HET A   1)   2.23799418 +1   -0.0539969 +1   -0.0030305 +1     1     0     0
  O(HETATM    3  O3  HET A   1)  10.10536155 +1   98.7212718 +1   -0.0186663 +1     1     2     0
  O(HETATM    4  O4  HET A   1)   2.23703890 +1  104.4666421 +1  164.8426386 +1     3     1     2
  N(HETATM    5  N   HET A   1)   4.35327052 +1   18.4844311 +1   -8.1158607 +1     3     1     2
  C(HETATM    6  C1  HET A   1)   1.47635305 +1  122.3395365 +1 -168.7310554 +1     5     3     1
  C(HETATM    7  C2  HET A   1)   1.38070713 +1  117.9470570 +1    9.2910912 +1     5     3     1
  C(HETATM    8  C3  HET A   1)   1.52092017 +1  109.2113571 +1 -138.2817354 +1     6     5     3
  C(HETATM    9  C4  HET A   1)   1.49432035 +1  118.5432742 +1  177.0713410 +1     7     5     3
  C(HETATM   10  C5  HET A   1)   1.42593168 +1  117.3943853 +1  -16.5692559 +1     9     7     5
  C(HETATM   11  C6  HET A   1)   2.39533720 +1   26.6819642 +1    8.5965868 +1     5     3     1
  C(HETATM   12  C7  HET A   1)   7.72507658 +1   72.4810545 +1    1.0976357 +1     2     1     3
  C(HETATM   13  C8  HET A   1)   1.40731520 +1  119.6007820 +1   -1.4219085 +1     7     5     3
  C(HETATM   14  C9  HET A   1)   1.39850694 +1  119.8731506 +1    1.1611750 +1    13     7     5
  C(HETATM   15  C10 HET A   1)   1.41591095 +1  123.1122410 +1  162.4541974 +1     9     7     5
  C(HETATM   16  C11 HET A   1)   1.40877546 +1  120.4530823 +1  177.1815275 +1    10     9     7
  C(HETATM   17  C12 HET A   1)   1.33598425 +1   33.6061700 +1  159.9590196 +1     3     1     2
  C(HETATM   18  C13 HET A   1)   1.33619803 +1   71.2024235 +1    2.3753137 +1     1     2     3
  C(HETATM   19  C14 HET A   1)   1.33566800 +1   71.0652375 +1   -2.2605982 +1     2     1     3
  C(HETATM   20  C15 HET A   1)   1.41795691 +1  121.0842189 +1  179.5709622 +1    14    13     7
  C(HETATM   21  C16 HET A   1)   1.33680652 +1   71.0091484 +1   -2.8536604 +1     4     3     1
  C(HETATM   22  C17 HET A   1)   1.39310298 +1  128.4481921 +1 -179.9995095 +1    21     4     3
  C(HETATM   23  C18 HET A   1)   1.39277305 +1   36.9475214 +1  177.6879784 +1     2     1     3
  C(HETATM   24  C19 HET A   1)   1.39339040 +1  141.4633785 +1  167.6221693 +1     3     1     2
  H(HETATM   25 1H1  HET A   1)   1.11316547 +1  109.1877139 +1  104.0133461 +1     6     5     3
  H(HETATM   26 2H1  HET A   1)   1.11218468 +1  111.6334916 +1  -15.0095912 +1     6     5     3
  H(HETATM   27 1H3  HET A   1)   1.11109495 +1  112.0747954 +1  177.4625806 +1     8     6     5
  H(HETATM   28 2H3  HET A   1)   1.11168661 +1  107.5096710 +1   58.2708768 +1     8     6     5
  H(HETATM   29  H7  HET A   1)   1.08487141 +1  120.2628432 +1  175.5463532 +1    12     5     3
  H(HETATM   30  H8  HET A   1)   1.08096108 +1  121.2138844 +1  179.6480406 +1    13     7     5
  H(HETATM   31  H10 HET A   1)   1.07971755 +1  122.8740902 +1    0.7802993 +1    15     9     7
  H(HETATM   32  H11 HET A   1)   1.08256283 +1  121.6663612 +1 -179.7217505 +1    16    10     9
  H(HETATM   33  H15 HET A   1)   1.08326763 +1  120.5563879 +1    0.2270729 +1    20    14    13
  H(HETATM   34  H17 HET A   1)   1.08220788 +1  121.0297411 +1    0.0491061 +1    22    21     4
  H(HETATM   35 1H18 HET A   1)   1.11034622 +1  110.0521424 +1 -119.2268602 +1    23     2     1
  H(HETATM   36 2H18 HET A   1)   1.11029636 +1  110.0655851 +1  119.2381173 +1    23     2     1
  H(HETATM   37 1H19 HET A   1)   1.11032662 +1  110.0476825 +1 -123.7000932 +1    24     3     1
  H(HETATM   38 2H19 HET A   1)   1.11031780 +1  110.0507025 +1  114.7751363 +1    24     3     1

 XPARAM 
  1  1   -0.0023  1  2   -0.0001  1  3    0.0001  2  1    2.2380  2  2   -0.0009
  2  3   -0.0001  3  1   10.1054  3  2    1.7230  3  3   -0.0003  4  1    2.2370
  4  2    1.8233  4  3    2.8770  5  1    4.3533  5  2    0.3226  5  3    6.1415
  6  1    1.4764  6  2    2.1352  6  3    3.3383  7  1    1.3807  7  2    2.0586
  7  3    0.1622  8  1    1.5209  8  2    1.9061  8  3    3.8697  9  1    1.4943
  9  2    2.0690  9  3    3.0905 10  1    1.4259 10  2    2.0489 10  3    5.9940
 11  1    2.3953 11  2    0.4657 11  3    0.1500 12  1    7.7251 12  2    1.2650
 12  3    0.0192 13  1    1.4073 13  2    2.0874 13  3    6.2584 14  1    1.3985
 14  2    2.0922 14  3    0.0203 15  1    1.4159 15  2    2.1487 15  3    2.8354
 16  1    1.4088 16  2    2.1023 16  3    3.0924 17  1    1.3360 17  2    0.5865
 17  3    2.7918 18  1    1.3362 18  2    1.2427 18  3    0.0415 19  1    1.3357
 19  2    1.2403 19  3    6.2437 20  1    1.4180 20  2    2.1133 20  3    3.1341
 21  1    1.3368 21  2    1.2393 21  3    6.2334 22  1    1.3931 22  2    2.2418
 22  3    3.1416 23  1    1.3928 23  2    0.6449 23  3    3.1012 24  1    1.3934
 24  2    2.4690 24  3    2.9256 25  1    1.1132 25  2    1.9057 25  3    1.8154
 26  1    1.1122 26  2    1.9484 26  3    6.0212 27  1    1.1111 27  2    1.9561
 27  3    3.0973 28  1    1.1117 28  2    1.8764 28  3    1.0170 29  1    1.0849
 29  2    2.0990 29  3    3.0639 30  1    1.0810 30  2    2.1156 30  3    3.1354
 31  1    1.0797 31  2    2.1446 31  3    0.0136 32  1    1.0826 32  2    2.1235
 32  3    3.1464 33  1    1.0833 33  2    2.1041 33  3    0.0040 34  1    1.0822
 34  2    2.1124 34  3    0.0009 35  1    1.1103 35  2    1.9208 35  3    4.2023
 36  1    1.1103 36  2    1.9210 36  3    2.0811 37  1    1.1103 37  2    1.9207
 37  3    4.1242 38  1    1.1103 38  2    1.9207 38  3    2.0032
 grad
       0.00000    0.00001   -0.00000 -118.29971    0.00000    0.00000    7.95329   -0.12896
       0.00000 -103.36629   14.03209    1.39589  -10.54111   35.47996  -72.00267   -4.28080
      -1.53332   -0.32999  -32.52833    4.05725   11.49753  -13.48379    1.47560    0.11153
       1.59041  -15.71521    0.74296   11.00263   -7.64648    5.74779   23.12131   25.19889
       0.48133   18.63303    2.38042 -519.24450    8.55434   -5.47506    3.85744  -32.15944
     -10.98534    3.17690    6.60414   10.45046    2.42794    4.66073  -13.99299   -2.38917
     -14.28166   34.85483    2.00958  -33.84987  -81.43604   -0.39155  -29.07884  -74.31103
       0.31113  -11.59740  -18.26260   -0.66702  -34.19156  -52.37937    0.73574  -17.01900
     -11.82401   -0.36945  -29.79122  -38.03092   -0.06472  -31.26673  -36.03144   -1.81328
      -7.44819    3.10640    6.27304   -1.34217    1.81790   -1.09243    0.50592    1.20661
       3.46321   -4.52109  -10.54967   -5.31607  -10.49798    2.71997    6.52818   -8.15970
       4.83197   -0.00599   -5.37095    3.62756   -0.22661   -4.83367    1.97315   -0.26737
      -5.92051    3.40262    0.02982   -7.01354   -0.31174    0.06392    0.76119    3.31291
      -5.86132    0.72595    3.44670    5.83516    0.52956    3.48290   -6.07545    0.49327
       3.49947    6.07007
 CYCLE:     4 TIME:   0.023 TIME LEFT:  2.00D  GRAD.:   576.243 HEAT:  107.1843

          HESSIAN HAS  0 NEGATIVE EIGENVALUE(S)
  MIN SEARCH, CORRECT HESSIAN, TRYING PURE NR STEP
 LAMBDA THAT MINIMIZES ALONG ALL MODES =        0.000000000
 PURE NR-STEP HAS LENGTH   8.01251
 LAMBDA THAT MINIMIZES ALONG ALL MODES =     -229.520013174
 P-RFO-STEP   HAS LENGTH   0.93631
 LAMBDA THAT MINIMIZES ALONG ALL MODES =   -19854.009551466
 QA/TRIM-STEP HAS LENGTH   0.01250

  HEAT OF FORMATION        104.84602830876247    
 PARAMETERS       -0.004  -0.000   0.000   2.243  -0.001  -0.000  10.103   1.723
  -0.002   2.242   1.822   2.877   4.353   0.321   6.141   1.476   2.135   3.338

   1.381   2.058   0.162   1.521   1.905   3.870   1.493   2.069   3.090   1.425

   2.048   5.994   2.393   0.464   0.150   7.723   1.265   0.022   1.406   2.086

   6.258   1.399   2.092   0.020   1.415   2.148   2.835   1.408   2.102   3.093

   1.336   0.584   2.792   1.337   1.247   0.041   1.337   1.244   6.244   1.418

   2.114   3.134   1.338   1.242   6.233   1.393   2.242   3.142   1.393   0.646

   3.101   1.394   2.470   2.926   1.113   1.905   1.815   1.112   1.948   6.021

   1.111   1.956   3.097   1.112   1.877   1.017   1.085   2.099   3.064   1.081

   2.115   3.135   1.080   2.144   0.014   1.083   2.123   3.146   1.083   2.104

   0.004   1.082   2.112   0.001   1.110   1.920   4.203   1.110   1.921   2.081

   1.110   1.920   4.125   1.110   1.920   2.003
 GRADIENT          0.000   0.000  -0.000 -79.441   0.000   0.000  -0.398  13.427
   0.000 -86.059  -5.383   0.312 -25.661-241.655  31.117  -6.274  -3.664  -0.638

 -16.482-134.144  -6.786 -13.392   1.368  -0.240   3.516  78.428  26.322  -1.629

  45.803   7.293  30.967  30.272  -0.917  18.066  18.111 210.095  12.915 -30.171

  -0.044 -23.631 -25.088   0.731   2.021  -0.179   2.879   6.905 -44.003  -1.664

 -15.604  15.324   0.901 -34.545 -64.570  -0.438 -23.134 -27.998   0.520  -8.420

  -3.608  -0.546 -24.448 -39.009   0.568  -9.265  -5.273  -0.264 -28.680 -28.070

  -0.062 -30.550 -25.795  -1.171  -7.471   2.708   6.058  -1.464   1.444  -0.772

   0.353   1.131   3.386  -4.665 -10.452  -5.336  -9.435   0.826  -3.068  -8.190

   4.718  -0.401  -4.852   2.745  -0.262  -6.790   3.920  -0.243  -6.929   4.564

   0.106  -6.939  -0.561   0.026   0.967   3.178  -6.168   0.888   3.318   6.147

   0.743   3.317  -6.400   0.729   3.285   6.437
       HoF         ACTUAL,  PREDICTED ENERGY CHANGE, RATIO
   104.8460283    -2.3382564          -3.5626129    0.6563319
     STEPSIZE USED IS  0.01250
 CALCULATED STEP
    -0.001397 -0.000282 -0.000067  0.005300 -0.000157 -0.000416 -0.001868  0.000279
    -0.001329  0.004765 -0.000885 -0.000115  0.000098 -0.001445 -0.000185 -0.000697
    -0.000456  0.000077  0.000290 -0.000249 -0.000228 -0.000112 -0.000906 -0.000034
    -0.000998 -0.000036  0.000002 -0.001115 -0.000759 -0.000206 -0.002499 -0.002070
    -0.000287 -0.002346 -0.000324  0.002894 -0.001049 -0.001020  0.000054  0.000282
     0.000214  0.000012 -0.001342 -0.001046 -0.000038 -0.001254 -0.000022  0.000198
    -0.000188 -0.002997 -0.000273  0.000412  0.004758 -0.000022  0.000878  0.003357
    -0.000065 -0.000349  0.000325  0.000106  0.001195  0.002308 -0.000063  0.000058
    -0.000240  0.000116  0.000673  0.001526 -0.000142  0.000630  0.001436  0.000244
     0.000065 -0.000291 -0.000287 -0.000089 -0.000424  0.000076 -0.000297 -0.000255
    -0.000143 -0.000114  0.000429  0.000292  0.000233 -0.000305 -0.000004  0.000148
    -0.000446  0.000050 -0.000123 -0.000229  0.000051 -0.000034 -0.000285  0.000050
    -0.000092 -0.000211  0.000035 -0.000010 -0.000063  0.000036 -0.000254 -0.000416
     0.000314 -0.000331 -0.000326 -0.000258 -0.000244 -0.000422  0.000325 -0.000322
    -0.000326 -0.000270
     NEW TRUST RADIUS =  0.01768
*REMARK   3 HET = Not identified; C 19 H 14 N O 4    =    38 atoms res:    1
 PM7 CHARGE=+1 EF NOXYZ PRNT=2 PDBOUT COMPFG GRAPHF
 5,7,17,19-tetraoxa-13-azoniahexacyclo[11.11.0.02,10.04,8.015,23.016,20]tetracosa-1(13),2,4(8),9,14,16(20),21,23-octaene

  O(HETATM    1  O1  HET A   1)  -0.00366321 +1   -0.0003981 +1    0.0000245 +1
  O(HETATM    2  O2  HET A   1)   2.24329377 +1   -0.0629932 +1   -0.0268552 +1     1     0     0
  O(HETATM    3  O3  HET A   1)  10.10349349 +1   98.7372817 +1   -0.0948267 +1     1     2     0
  O(HETATM    4  O4  HET A   1)   2.24180399 +1  104.4159224 +1  164.8360334 +1     3     1     2
  N(HETATM    5  N   HET A   1)   4.35336836 +1   18.4016372 +1   -8.1264365 +1     3     1     2
  C(HETATM    6  C1  HET A   1)   1.47565582 +1  122.3133991 +1 -168.7266217 +1     5     3     1
  C(HETATM    7  C2  HET A   1)   1.38099698 +1  117.9328012 +1    9.2780332 +1     5     3     1
  C(HETATM    8  C3  HET A   1)   1.52080801 +1  109.1594714 +1 -138.2836682 +1     6     5     3
  C(HETATM    9  C4  HET A   1)   1.49332213 +1  118.5412163 +1  177.0714329 +1     7     5     3
  C(HETATM   10  C5  HET A   1)   1.42481631 +1  117.3509071 +1  -16.5810766 +1     9     7     5
  C(HETATM   11  C6  HET A   1)   2.39283815 +1   26.5633567 +1    8.5801282 +1     5     3     1
  C(HETATM   12  C7  HET A   1)   7.72273029 +1   72.4625182 +1    1.2634614 +1     2     1     3
  C(HETATM   13  C8  HET A   1)   1.40626623 +1  119.5423388 +1   -1.4187918 +1     7     5     3
  C(HETATM   14  C9  HET A   1)   1.39878934 +1  119.8854277 +1    1.1618627 +1    13     7     5
  C(HETATM   15  C10 HET A   1)   1.41456930 +1  123.0523290 +1  162.4520412 +1     9     7     5
  C(HETATM   16  C11 HET A   1)   1.40752149 +1  120.4518133 +1  177.1928688 +1    10     9     7
  C(HETATM   17  C12 HET A   1)   1.33579646 +1   33.4344305 +1  159.9433905 +1     3     1     2
  C(HETATM   18  C13 HET A   1)   1.33661013 +1   71.4750407 +1    2.3740442 +1     1     2     3
  C(HETATM   19  C14 HET A   1)   1.33654641 +1   71.2575931 +1   -2.2643259 +1     2     1     3
  C(HETATM   20  C15 HET A   1)   1.41760835 +1  121.1028135 +1  179.5770404 +1    14    13     7
  C(HETATM   21  C16 HET A   1)   1.33800191 +1   71.1413983 +1   -2.8572625 +1     4     3     1
  C(HETATM   22  C17 HET A   1)   1.39316132 +1  128.4344567 +1 -179.9928534 +1    21     4     3
  C(HETATM   23  C18 HET A   1)   1.39344560 +1   37.0349699 +1  177.6798641 +1     2     1     3
  C(HETATM   24  C19 HET A   1)   1.39402051 +1  141.5456700 +1  167.6361336 +1     3     1     2
  H(HETATM   25 1H1  HET A   1)   1.11323049 +1  109.1710135 +1  103.9968920 +1     6     5     3
  H(HETATM   26 2H1  HET A   1)   1.11209548 +1  111.6092090 +1  -15.0052524 +1     6     5     3
  H(HETATM   27 1H3  HET A   1)   1.11079813 +1  112.0601609 +1  177.4544081 +1     8     6     5
  H(HETATM   28 2H3  HET A   1)   1.11157264 +1  107.5342297 +1   58.2876016 +1     8     6     5
  H(HETATM   29  H7  HET A   1)   1.08510466 +1  120.2453875 +1  175.5460986 +1    12     5     3
  H(HETATM   30  H8  HET A   1)   1.08110879 +1  121.1883352 +1  179.6509049 +1    13     7     5
  H(HETATM   31  H10 HET A   1)   1.07959491 +1  122.8609751 +1    0.7832104 +1    15     9     7
  H(HETATM   32  H11 HET A   1)   1.08252884 +1  121.6500247 +1 -179.7188701 +1    16    10     9
  H(HETATM   33  H15 HET A   1)   1.08317598 +1  120.5442917 +1    0.2291059 +1    20    14    13
  H(HETATM   34  H17 HET A   1)   1.08219834 +1  121.0261423 +1    0.0511746 +1    22    21     4
  H(HETATM   35 1H18 HET A   1)   1.11009235 +1  110.0283310 +1 -119.2088735 +1    23     2     1
  H(HETATM   36 2H18 HET A   1)   1.10996565 +1  110.0469147 +1  119.2233112 +1    23     2     1
  H(HETATM   37 1H19 HET A   1)   1.11008264 +1  110.0234959 +1 -123.6814752 +1    24     3     1
  H(HETATM   38 2H19 HET A   1)   1.10999579 +1  110.0320458 +1  114.7596712 +1    24     3     1

 XPARAM 
  1  1   -0.0037  1  2   -0.0004  1  3    0.0000  2  1    2.2433  2  2   -0.0011
  2  3   -0.0005  3  1   10.1035  3  2    1.7233  3  3   -0.0017  4  1    2.2418
  4  2    1.8224  4  3    2.8769  5  1    4.3534  5  2    0.3212  5  3    6.1414
  6  1    1.4757  6  2    2.1348  6  3    3.3384  7  1    1.3810  7  2    2.0583
  7  3    0.1619  8  1    1.5208  8  2    1.9052  8  3    3.8697  9  1    1.4933
  9  2    2.0689  9  3    3.0905 10  1    1.4248 10  2    2.0482 10  3    5.9938
 11  1    2.3928 11  2    0.4636 11  3    0.1498 12  1    7.7227 12  2    1.2647
 12  3    0.0221 13  1    1.4063 13  2    2.0864 13  3    6.2584 14  1    1.3988
 14  2    2.0924 14  3    0.0203 15  1    1.4146 15  2    2.1477 15  3    2.8353
 16  1    1.4075 16  2    2.1023 16  3    3.0926 17  1    1.3358 17  2    0.5835
 17  3    2.7915 18  1    1.3366 18  2    1.2475 18  3    0.0414 19  1    1.3365
 19  2    1.2437 19  3    6.2437 20  1    1.4176 20  2    2.1136 20  3    3.1342
 21  1    1.3380 21  2    1.2417 21  3    6.2333 22  1    1.3932 22  2    2.2416
 22  3    3.1417 23  1    1.3934 23  2    0.6464 23  3    3.1011 24  1    1.3940
 24  2    2.4704 24  3    2.9258 25  1    1.1132 25  2    1.9054 25  3    1.8151
 26  1    1.1121 26  2    1.9479 26  3    6.0213 27  1    1.1108 27  2    1.9558
 27  3    3.0972 28  1    1.1116 28  2    1.8768 28  3    1.0173 29  1    1.0851
 29  2    2.0987 29  3    3.0639 30  1    1.0811 30  2    2.1151 30  3    3.1355
 31  1    1.0796 31  2    2.1443 31  3    0.0137 32  1    1.0825 32  2    2.1232
 32  3    3.1465 33  1    1.0832 33  2    2.1039 33  3    0.0040 34  1    1.0822
 34  2    2.1123 34  3    0.0009 35  1    1.1101 35  2    1.9204 35  3    4.2026
 36  1    1.1100 36  2    1.9207 36  3    2.0808 37  1    1.1101 37  2    1.9203
 37  3    4.1245 38  1    1.1100 38  2    1.9204 38  3    2.0029
 grad
       0.00000    0.00001   -0.00000  -79.44143    0.00000    0.00000   -0.39836   13.42683
       0.00000  -86.05878   -5.38278    0.31213  -25.66101 -241.65535   31.11675   -6.27365
      -3.66359   -0.63794  -16.48240 -134.14378   -6.78626  -13.39218    1.36774   -0.24018
       3.51626   78.42756   26.32167   -1.62942   45.80335    7.29264   30.96693   30.27195
      -0.91695   18.06628   18.11097  210.09516   12.91506  -30.17128   -0.04384  -23.63063
     -25.08823    0.73099    2.02070   -0.17936    2.87946    6.90465  -44.00340   -1.66358
     -15.60378   15.32400    0.90136  -34.54502  -64.56998   -0.43818  -23.13362  -27.99824
       0.51994   -8.41978   -3.60804   -0.54644  -24.44817  -39.00864    0.56789   -9.26523
      -5.27334   -0.26439  -28.68008  -28.07019   -0.06222  -30.54951  -25.79536   -1.17138
      -7.47067    2.70832    6.05848   -1.46399    1.44418   -0.77152    0.35285    1.13057
       3.38554   -4.66468  -10.45163   -5.33554   -9.43485    0.82636   -3.06795   -8.19014
       4.71847   -0.40126   -4.85220    2.74495   -0.26249   -6.79027    3.92030   -0.24340
      -6.92881    4.56404    0.10588   -6.93928   -0.56061    0.02570    0.96679    3.17828
      -6.16767    0.88786    3.31765    6.14744    0.74310    3.31749   -6.39964    0.72851
       3.28496    6.43750
 CYCLE:     5 TIME:   0.023 TIME LEFT:  2.00D  GRAD.:   407.445 HEAT:  104.8460

          HESSIAN HAS  0 NEGATIVE EIGENVALUE(S)
  MIN SEARCH, CORRECT HESSIAN, TRYING PURE NR STEP
 LAMBDA THAT MINIMIZES ALONG ALL MODES =        0.000000000
 PURE NR-STEP HAS LENGTH   1.43064
 LAMBDA THAT MINIMIZES ALONG ALL MODES =     -115.272187257
 P-RFO-STEP   HAS LENGTH   0.70285
 LAMBDA THAT MINIMIZES ALONG ALL MODES =    -9369.767431865
 QA/TRIM-STEP HAS LENGTH   0.01768

  HEAT OF FORMATION        102.49624660173140    
 PARAMETERS       -0.006  -0.001  -0.000   2.251  -0.002  -0.001  10.101   1.723
  -0.002   2.249   1.820   2.877   4.353   0.322   6.141   1.475   2.133   3.339

   1.383   2.059   0.162   1.520   1.904   3.870   1.492   2.069   3.091   1.422

   2.047   5.993   2.388   0.461   0.150   7.719   1.264   0.020   1.404   2.086

   6.259   1.400   2.094   0.020   1.412   2.145   2.835   1.406   2.103   3.093

   1.336   0.581   2.791   1.338   1.253   0.042   1.338   1.247   6.244   1.417

   2.114   3.135   1.339   1.244   6.233   1.393   2.242   3.142   1.395   0.648

   3.101   1.396   2.472   2.926   1.114   1.905   1.815   1.112   1.947   6.021

   1.110   1.955   3.097   1.112   1.878   1.018   1.086   2.098   3.064   1.081

   2.114   3.136   1.080   2.144   0.014   1.083   2.123   3.147   1.083   2.103

   0.004   1.082   2.112   0.001   1.110   1.920   4.203   1.109   1.920   2.080

   1.110   1.920   4.125   1.109   1.920   2.002
 GRADIENT          0.000   0.000  -0.000 -52.024   0.000   0.000  -4.085  18.879
   0.000 -60.745  15.816   1.418 -11.396-108.603 -39.205  -6.398  -5.277  -0.053

  -7.723 -44.267   2.103 -13.501   2.107   0.912   8.778  38.568  16.592  -0.428

  29.005   7.017  21.289  -6.846  -0.084  15.559  27.307-275.750  11.337   1.235

   2.975 -30.499  -9.850   2.762   0.505  14.025   2.231  -0.102 -35.588  -2.043

 -17.798  -0.516   0.256 -30.384 -22.844  -0.145 -27.663  -6.179   0.404  -8.878

  -9.627  -0.652 -28.612  -8.662   0.757  -8.040 -13.943  -0.361 -27.089 -14.660

  -0.076 -29.357 -10.296  -0.411  -7.322   2.638   5.991  -1.707   1.189  -0.967

   0.166   0.936   3.131  -4.550 -10.435  -5.196 -10.160   1.718   3.798  -8.059

   4.406  -0.086  -5.912   3.693  -0.182  -6.671   3.604  -0.301  -6.603   4.379

   0.103  -6.277  -1.168   0.071   1.119   2.978  -6.562   1.058   3.127   6.545

   1.071   2.979  -6.938   1.055   2.973   7.018
       HoF         ACTUAL,  PREDICTED ENERGY CHANGE, RATIO
   102.4962466    -2.3497817          -3.1997913    0.7343547
     STEPSIZE USED IS  0.01768
 CALCULATED STEP
    -0.002058 -0.000343 -0.000202  0.007919 -0.000521 -0.000234 -0.002669 -0.000470
     0.000108  0.007079 -0.002483  0.000106 -0.000034  0.000779 -0.000543 -0.000974
    -0.001546  0.000488  0.001684  0.001007 -0.000312 -0.000386 -0.001183  0.000633
    -0.001725 -0.000025  0.000033 -0.002672 -0.001405 -0.000347 -0.004583 -0.002999
    -0.000041 -0.003522 -0.000248 -0.001938 -0.002740 -0.000374  0.000179  0.001391
     0.001337  0.000130 -0.002117 -0.002177  0.000045 -0.001884  0.000922  0.000526
    -0.000177 -0.003030 -0.000176  0.001831  0.005797  0.000130  0.001346  0.003368
     0.000054 -0.000596  0.000080  0.000355  0.001377  0.001926  0.000014 -0.000387
     0.000072  0.000354  0.001202  0.002036 -0.000036  0.001507  0.001818  0.000506
     0.000280 -0.000520 -0.000577 -0.000343 -0.000664  0.000164 -0.000500 -0.000448
    -0.000314  0.000010  0.000909  0.000647  0.000531 -0.000469  0.000148  0.000352
    -0.000806  0.000116  0.000094 -0.000493  0.000112  0.000073 -0.000577  0.000114
     0.000184 -0.000536  0.000074  0.000217 -0.000033  0.000080 -0.000578 -0.000718
     0.000719 -0.000567 -0.000593 -0.000572 -0.000557 -0.000727  0.000744 -0.000551
    -0.000586 -0.000603
     NEW TRUST RADIUS =  0.02500
*REMARK   3 HET = Not identified; C 19 H 14 N O 4    =    38 atoms res:    1
 PM7 CHARGE=+1 EF NOXYZ PRNT=2 PDBOUT COMPFG GRAPHF
 5,7,17,19-tetraoxa-13-azoniahexacyclo[11.11.0.02,10.04,8.015,23.016,20]tetracosa-1(13),2,4(8),9,14,16(20),21,23-octaene

  O(HETATM    1  O1  HET A   1)  -0.00572082 +1   -0.0007412 +1   -0.0001770 +1
  O(HETATM    2  O2  HET A   1)   2.25121251 +1   -0.0928340 +1   -0.0402871 +1     1     0     0
  O(HETATM    3  O3  HET A   1)  10.10082400 +1   98.7103476 +1   -0.0886447 +1     1     2     0
  O(HETATM    4  O4  HET A   1)   2.24888325 +1  104.2736741 +1  164.8421061 +1     3     1     2
  N(HETATM    5  N   HET A   1)   4.35333409 +1   18.4462979 +1   -8.1575374 +1     3     1     2
  C(HETATM    6  C1  HET A   1)   1.47468153 +1  122.2248277 +1 -168.6986358 +1     5     3     1
  C(HETATM    7  C2  HET A   1)   1.38268064 +1  117.9905136 +1    9.2601323 +1     5     3     1
  C(HETATM    8  C3  HET A   1)   1.52042193 +1  109.0916804 +1 -138.2473783 +1     6     5     3
  C(HETATM    9  C4  HET A   1)   1.49159738 +1  118.5397861 +1  177.0733521 +1     7     5     3
  C(HETATM   10  C5  HET A   1)   1.42214476 +1  117.2704319 +1  -16.6009816 +1     9     7     5
  C(HETATM   11  C6  HET A   1)   2.38825526 +1   26.3915431 +1    8.5777652 +1     5     3     1
  C(HETATM   12  C7  HET A   1)   7.71920813 +1   72.4483174 +1    1.1524367 +1     2     1     3
  C(HETATM   13  C8  HET A   1)   1.40352629 +1  119.5208989 +1   -1.4085606 +1     7     5     3
  C(HETATM   14  C9  HET A   1)   1.40018006 +1  119.9620552 +1    1.1693287 +1    13     7     5
  C(HETATM   15  C10 HET A   1)   1.41245264 +1  122.9276090 +1  162.4546455 +1     9     7     5
  C(HETATM   16  C11 HET A   1)   1.40563738 +1  120.5046617 +1  177.2229894 +1    10     9     7
  C(HETATM   17  C12 HET A   1)   1.33561992 +1   33.2608497 +1  159.9332906 +1     3     1     2
  C(HETATM   18  C13 HET A   1)   1.33844124 +1   71.8071659 +1    2.3814951 +1     1     2     3
  C(HETATM   19  C14 HET A   1)   1.33789240 +1   71.4505428 +1   -2.2612548 +1     2     1     3
  C(HETATM   20  C15 HET A   1)   1.41701257 +1  121.1073775 +1  179.5973534 +1    14    13     7
  C(HETATM   21  C16 HET A   1)   1.33937865 +1   71.2517447 +1   -2.8564609 +1     4     3     1
  C(HETATM   22  C17 HET A   1)   1.39277442 +1  128.4385939 +1 -179.9725609 +1    21     4     3
  C(HETATM   23  C18 HET A   1)   1.39464759 +1   37.1516340 +1  177.6777823 +1     2     1     3
  C(HETATM   24  C19 HET A   1)   1.39552781 +1  141.6498052 +1  167.6651118 +1     3     1     2
  H(HETATM   25 1H1  HET A   1)   1.11351090 +1  109.1412370 +1  103.9638420 +1     6     5     3
  H(HETATM   26 2H1  HET A   1)   1.11175244 +1  111.5711691 +1  -14.9958504 +1     6     5     3
  H(HETATM   27 1H3  HET A   1)   1.11029809 +1  112.0345126 +1  177.4363988 +1     8     6     5
  H(HETATM   28 2H3  HET A   1)   1.11158303 +1  107.5863180 +1   58.3246961 +1     8     6     5
  H(HETATM   29  H7  HET A   1)   1.08563586 +1  120.2184997 +1  175.5545756 +1    12     5     3
  H(HETATM   30  H8  HET A   1)   1.08146045 +1  121.1421347 +1  179.6575764 +1    13     7     5
  H(HETATM   31  H10 HET A   1)   1.07968844 +1  122.8327112 +1    0.7896077 +1    15     9     7
  H(HETATM   32  H11 HET A   1)   1.08260174 +1  121.6169425 +1 -179.7123443 +1    16    10     9
  H(HETATM   33  H15 HET A   1)   1.08336016 +1  120.5135918 +1    0.2333246 +1    20    14    13
  H(HETATM   34  H17 HET A   1)   1.08241502 +1  121.0242269 +1    0.0557308 +1    22    21     4
  H(HETATM   35 1H18 HET A   1)   1.10951387 +1  109.9872190 +1 -119.1676929 +1    23     2     1
  H(HETATM   36 2H18 HET A   1)   1.10939817 +1  110.0129306 +1  119.1905107 +1    23     2     1
  H(HETATM   37 1H19 HET A   1)   1.10952526 +1  109.9818445 +1 -123.6388249 +1    24     3     1
  H(HETATM   38 2H19 HET A   1)   1.10944458 +1  109.9984606 +1  114.7251072 +1    24     3     1

 XPARAM 
  1  1   -0.0057  1  2   -0.0007  1  3   -0.0002  2  1    2.2512  2  2   -0.0016
  2  3   -0.0007  3  1   10.1008  3  2    1.7228  3  3   -0.0015  4  1    2.2489
  4  2    1.8199  4  3    2.8770  5  1    4.3533  5  2    0.3219  5  3    6.1408
  6  1    1.4747  6  2    2.1332  6  3    3.3388  7  1    1.3827  7  2    2.0593
  7  3    0.1616  8  1    1.5204  8  2    1.9040  8  3    3.8703  9  1    1.4916
  9  2    2.0689  9  3    3.0905 10  1    1.4221 10  2    2.0468 10  3    5.9934
 11  1    2.3883 11  2    0.4606 11  3    0.1497 12  1    7.7192 12  2    1.2645
 12  3    0.0201 13  1    1.4035 13  2    2.0860 13  3    6.2586 14  1    1.4002
 14  2    2.0937 14  3    0.0204 15  1    1.4125 15  2    2.1455 15  3    2.8354
 16  1    1.4056 16  2    2.1032 16  3    3.0931 17  1    1.3356 17  2    0.5805
 17  3    2.7914 18  1    1.3384 18  2    1.2533 18  3    0.0416 19  1    1.3379
 19  2    1.2470 19  3    6.2437 20  1    1.4170 20  2    2.1137 20  3    3.1346
 21  1    1.3394 21  2    1.2436 21  3    6.2333 22  1    1.3928 22  2    2.2417
[...]
  H(HETATM   37 1H19 HET A   1)   1.10081579 +1  107.5156260 +1 -124.9831514 +1    24     3     1
  H(HETATM   38 2H19 HET A   1)   1.10084740 +1  107.5400678 +1  108.2877625 +1    24     3     1

 XPARAM 
  1  1   -0.2935  1  2   -0.0199  1  3    0.1384  2  1    2.3610  2  2    0.1608
  2  3    0.1468  3  1    9.9979  3  2    1.7408  3  3    0.0858  4  1    2.3626
  4  2    1.8006  4  3    2.7247  5  1    4.3413  5  2    0.3450  5  3    6.1158
  6  1    1.4837  6  2    2.1505  6  3    3.4019  7  1    1.4048  7  2    2.0619
  7  3    0.2672  8  1    1.5317  8  2    1.9176  8  3    3.8350  9  1    1.4621
  9  2    2.0550  9  3    3.1606 10  1    1.3999 10  2    2.0883 10  3    5.8403
 11  1    2.3907 11  2    0.4741 11  3    0.2847 12  1    7.6998 12  2    1.2369
 12  3    0.0272 13  1    1.3767 13  2    2.0790 13  3    6.3190 14  1    1.4202
 14  2    2.1286 14  3   -0.0341 15  1    1.4156 15  2    2.0797 15  3    2.7147
 16  1    1.4055 16  2    2.1315 16  3    3.2054 17  1    1.3604 17  2    0.6004
 17  3    2.5643 18  1    1.3667 18  2    1.2169 18  3    0.0310 19  1    1.3589
 19  2    1.2221 19  3    6.2549 20  1    1.4122 20  2    2.1360 20  3    3.1545
 21  1    1.3660 21  2    1.2116 21  3    6.1856 22  1    1.3932 22  2    2.2220
 22  3    3.1449 23  1    1.4537 23  2    0.6199 23  3    3.1161 24  1    1.4595
 24  2    2.4177 24  3    2.8118 25  1    1.1221 25  2    1.8882 25  3    1.7318
 26  1    1.1146 26  2    1.9275 26  3    5.9739 27  1    1.1147 27  2    1.9109
 27  3    3.1510 28  1    1.1146 28  2    1.9484 28  3    1.1380 29  1    1.1061
 29  2    2.0891 29  3    3.0776 30  1    1.0982 30  2    2.0890 30  3    3.0984
 31  1    1.0878 31  2    2.1322 31  3   -0.0676 32  1    1.0885 32  2    2.1282
 32  3    3.1216 33  1    1.0950 33  2    2.0730 33  3   -0.0023 34  1    1.0940
 34  2    2.1115 34  3   -0.0017 35  1    1.1007 35  2    1.8788 35  3    4.2459
 36  1    1.1007 36  2    1.8790 36  3    2.0377 37  1    1.1008 37  2    1.8765
 37  3    4.1018 38  1    1.1008 38  2    1.8769 38  3    1.8900
 grad
       0.00000    0.00001   -0.00000   -0.06257    0.00000    0.00000   -0.08512    0.11471
       0.00000   -0.06457   -0.11663   -0.02847   -0.04295    0.22307   -0.12321   -0.03823
      -0.04137    0.12554   -0.10009    0.03010    0.11036   -0.05365    0.03086   -0.00949
      -0.06480   -0.12420   -0.03963   -0.05722   -0.08675   -0.01622   -0.03478    0.03717
       0.01582   -0.05445   -0.05115    0.18552   -0.04927   -0.10529    0.06392   -0.04647
      -0.04424    0.02558   -0.06948    0.01206    0.00538   -0.06201   -0.00440    0.02709
      -0.04238    0.00138   -0.03005   -0.05714    0.04365    0.01391   -0.05160   -0.04822
       0.01851   -0.05858   -0.00539    0.00833   -0.00605   -0.05715    0.01201   -0.03603
      -0.00325    0.02928   -0.04379   -0.01702    0.00801   -0.05430   -0.01862    0.02542
      -0.01393   -0.00913    0.00226   -0.00961   -0.01416    0.00645   -0.01158   -0.02079
       0.01292   -0.01961    0.00639    0.01497   -0.01393   -0.00431    0.03857   -0.01476
      -0.00664   -0.00335   -0.02034    0.00622   -0.00049   -0.01408   -0.00486    0.01017
      -0.01703   -0.00528    0.00087   -0.01546    0.00088   -0.00046   -0.01452   -0.01185
       0.00108   -0.01503   -0.00258    0.00206   -0.01736   -0.00825    0.00409   -0.01391
      -0.00451    0.00408
 CYCLE:    99 TIME:   0.023 TIME LEFT:  2.00D  GRAD.:     0.546 HEAT:  88.65773

     GRADIENT =  0.54587 IS LESS THAN CUTOFF =  1.00000



  HEAT OF FORMATION        88.657725724464399    

 -------------------------------------------------------------------------------
 PM7 CHARGE=+1 EF NOXYZ PRNT=2 PDBOUT COMPFG GRAPHF
 5,7,17,19-tetraoxa-13-azoniahexacyclo[11.11.0.02,10.04,8.015,23.016,20]tetracosa-1(13),2,4(8),9,14,16(20),21,23-octaene



     GEOMETRY OPTIMISED USING EIGENVECTOR FOLLOWING (EF).     
     SCF FIELD WAS ACHIEVED                                   


                              PM7 CALCULATION
                                                       MOPAC v22.0.6 Linux
                                                       Sun Oct 12 20:04:34 2025




          FINAL HEAT OF FORMATION =         88.65773 KCAL/MOL =     370.94392 KJ/MOL


          COSMO AREA              =        310.92 SQUARE ANGSTROMS
          COSMO VOLUME            =        343.40 CUBIC ANGSTROMS

          GRADIENT NORM           =          0.54587          =       0.08855 PER ATOM
          IONIZATION POTENTIAL    =         11.563919 EV
          HOMO LUMO ENERGIES (EV) =        -11.564 -5.103
          NO. OF FILLED LEVELS    =         59
          MOLECULAR WEIGHT        =        320.3239         POINT GROUP:  C1  

          MOLECULAR DIMENSIONS (Angstroms)

            Atom       Atom       Distance
            H    37    H    35    13.53566
            H    34    H    27     7.78573
            H    36    H    38     3.60270


          SCF CALCULATIONS        =        136

          WALL-CLOCK TIME         =      2.898 SECONDS
          COMPUTATION TIME        =      2.651 SECONDS




  ATOM               CHEMICAL                 BOND LENGTH      BOND ANGLE     TWIST ANGLE 
 NUMBER               SYMBOL                  (ANGSTROMS)      (DEGREES)       (DEGREES) 
   (I)                                           NA:I           NB:NA:I       NC:NB:NA:I       NA    NB    NC 
     1       O(HETATM    1  O1  HET A   1)   -0.29351030  *   -0.0199237  *    0.1383572  *
     2       O(HETATM    2  O2  HET A   1)    2.36095235  *    9.2142881  *    8.4118382  *     1     0     0
     3       O(HETATM    3  O3  HET A   1)    9.99786978  *   99.7427756  *    4.9145413  *     1     2     0
     4       O(HETATM    4  O4  HET A   1)    2.36256145  *  103.1684225  *  156.1139371  *     3     1     2
     5       N(HETATM    5  N   HET A   1)    4.34128442  *   19.7643456  *   -9.5923755  *     3     1     2
     6       C(HETATM    6  C1  HET A   1)    1.48365640  *  123.2148381  * -165.0847232  *     5     3     1
     7       C(HETATM    7  C2  HET A   1)    1.40484073  *  118.1402994  *   15.3090231  *     5     3     1
     8       C(HETATM    8  C3  HET A   1)    1.53171708  *  109.8729643  * -140.2712076  *     6     5     3
     9       C(HETATM    9  C4  HET A   1)    1.46210002  *  117.7437991  * -178.9107405  *     7     5     3
    10       C(HETATM   10  C5  HET A   1)    1.39986146  *  119.6518719  *  -25.3781481  *     9     7     5
    11       C(HETATM   11  C6  HET A   1)    2.39066771  *   27.1650603  *   16.3110677  *     5     3     1
    12       C(HETATM   12  C7  HET A   1)    7.69976504  *   70.8711320  *    1.5555823  *     2     1     3
    13       C(HETATM   13  C8  HET A   1)    1.37674763  *  119.1193173  *    2.0528436  *     7     5     3
    14       C(HETATM   14  C9  HET A   1)    1.42021939  *  121.9596919  *   -1.9565441  *    13     7     5
    15       C(HETATM   15  C10 HET A   1)    1.41563392  *  119.1590811  *  155.5436272  *     9     7     5
    16       C(HETATM   16  C11 HET A   1)    1.40550926  *  122.1241805  * -176.3415364  *    10     9     7
    17       C(HETATM   17  C12 HET A   1)    1.36037938  *   34.3998254  *  146.9248434  *     3     1     2
    18       C(HETATM   18  C13 HET A   1)    1.36665875  *   69.7239011  *    1.7739271  *     1     2     3
    19       C(HETATM   19  C14 HET A   1)    1.35888614  *   70.0228207  *   -1.6219136  *     2     1     3
    20       C(HETATM   20  C15 HET A   1)    1.41220101  *  122.3849033  * -179.2583905  *    14    13     7
    21       C(HETATM   21  C16 HET A   1)    1.36595821  *   69.4202438  *   -5.5888231  *     4     3     1
    22       C(HETATM   22  C17 HET A   1)    1.39316936  *  127.3084772  * -179.8129855  *    21     4     3
    23       C(HETATM   23  C18 HET A   1)    1.45369084  *   35.5156134  *  178.5382221  *     2     1     3
    24       C(HETATM   24  C19 HET A   1)    1.45954296  *  138.5211912  *  161.1020219  *     3     1     2
    25       H(HETATM   25 1H1  HET A   1)    1.12207169  *  108.1877931  *   99.2262813  *     6     5     3
    26       H(HETATM   26 2H1  HET A   1)    1.11463055  *  110.4404266  *  -17.7223774  *     6     5     3
    27       H(HETATM   27 1H3  HET A   1)    1.11472191  *  109.4873290  * -179.4586446  *     8     6     5
    28       H(HETATM   28 2H3  HET A   1)    1.11461067  *  111.6375471  *   65.2030078  *     8     6     5
    29       H(HETATM   29  H7  HET A   1)    1.10611352  *  119.6959383  *  176.3319696  *    12     5     3
    30       H(HETATM   30  H8  HET A   1)    1.09819389  *  119.6924925  *  177.5249243  *    13     7     5
    31       H(HETATM   31  H10 HET A   1)    1.08782959  *  122.1679045  *   -3.8741193  *    15     9     7
    32       H(HETATM   32  H11 HET A   1)    1.08853363  *  121.9372658  *  178.8519929  *    16    10     9
    33       H(HETATM   33  H15 HET A   1)    1.09503725  *  118.7719409  *   -0.1311211  *    20    14    13
    34       H(HETATM   34  H17 HET A   1)    1.09404941  *  120.9819412  *   -0.0951723  *    22    21     4
    35       H(HETATM   35 1H18 HET A   1)    1.10071994  *  107.6485942  * -116.7293515  *    23     2     1
    36       H(HETATM   36 2H18 HET A   1)    1.10072052  *  107.6591727  *  116.7506127  *    23     2     1
    37       H(HETATM   37 1H19 HET A   1)    1.10081579  *  107.5156260  * -124.9831514  *    24     3     1
    38       H(HETATM   38 2H19 HET A   1)    1.10084740  *  107.5400678  *  108.2877625  *    24     3     1

                             CARTESIAN COORDINATES

   1    O       -0.293510303    -0.019923702     0.138357190
   2    O        2.067442050    -0.019923702     0.138357190
   3    O       -1.985402156     9.833750847     0.138357190
   4    O       -4.149557046    10.008263352    -0.793133867
   5    N        0.132588735     6.052081518     0.382983687
   6    C        1.504930194     5.923209706     0.931898333
   7    C       -0.514801494     4.898316440    -0.089551509
   8    C        2.310927883     4.928763335     0.090707886
   9    C        0.196775034     3.625703853     0.019317756
  10    C        1.596013867     3.615883785     0.059893219
  11    C       -1.752838044     7.399898438    -0.203401427
  12    C       -0.455724467     7.252009561     0.335838940
  13    C       -1.768233159     5.014235688    -0.647140817
  14    C       -2.445131865     6.260486041    -0.722581683
  15    C       -0.546206809     2.421471989     0.062014370
  16    C        2.334529218     2.420366503     0.087996475
  17    C       -2.430187540     8.618484916    -0.281079024
  18    C        0.180097603     1.261433708     0.098672571
  19    C        1.603184253     1.256684932     0.102209638
  20    C       -3.737047412     6.387088941    -1.278673066
  21    C       -3.711603202     8.715097835    -0.835100490
  22    C       -4.390253262     7.609827579    -1.343758150
  23    C        0.884199863    -0.864133913     0.159900062
  24    C       -3.071866186    10.756695646    -0.174747351
  25    H        1.425866366     5.563085995     1.991664675
  26    H        2.007972819     6.917478292     0.959815369
  27    H        3.337225437     4.829458542     0.514331326
  28    H        2.470395369     5.302822279    -0.947081583
  29    H        0.079673272     8.140278257     0.720306233
  30    H       -2.265875788     4.124961178    -1.056497004
  31    H       -1.633870472     2.412289333     0.078647264
  32    H        3.422976438     2.416079970     0.101024963
  33    H       -4.233530274     5.491884664    -1.667544055
  34    H       -5.391491452     7.712131143    -1.772710573
  35    H        0.886637445    -1.417916256     1.111164249
  36    H        0.886665635    -1.466080509    -0.761642057
  37    H       -2.690927213    11.478432743    -0.913514202
  38    H       -3.443790335    11.166382873     0.776932112


           Empirical Formula: C19 H14 N O4  =    38 atoms



      MOLECULAR POINT GROUP   :   C1  


                  EIGENVALUES  
 -42.14092 -35.79567 -35.28232 -34.66311 -34.12880 -32.88716 -32.51523 -32.36801
 -31.67725 -30.65114 -29.75461 -28.99539 -27.89960 -27.51758 -26.97016 -26.63291
 -26.13287 -25.79398 -24.73050 -24.38176 -23.33356 -22.16416 -21.98493 -21.77043
 -20.90007 -20.41118 -20.36249 -20.35224 -19.96432 -19.88860 -19.60153 -19.41969
 -19.17936 -18.55431 -18.46084 -18.26119 -18.10165 -17.74499 -17.65506 -17.46356
 -17.29276 -17.08299 -16.95357 -16.63433 -16.58357 -16.49486 -16.44919 -16.22428
 -16.01780 -15.92401 -15.74429 -15.42816 -15.24028 -14.94736 -13.98217 -13.52608
 -12.90726 -12.06020 -11.56392  -5.10259  -4.66179  -3.29133  -3.21653  -3.07408
  -2.87168  -2.34364  -2.20721  -1.69609  -1.44257  -1.24297  -0.96978  -0.92404
  -0.78575  -0.75105  -0.40365  -0.14628  -0.03264   0.08062   0.25054   0.31610
   0.43058   0.53145   0.64978   0.70088   0.76159   0.90541   0.93353   1.03742
   1.10751   1.23298   1.25431   1.34296   1.44733   1.54999   1.64350   1.69768
   1.79213   1.86625   1.93249   1.97997   2.09465   2.12563   2.33615   2.38541
   2.49531   2.51238   2.62107   2.63921   2.84001   3.06861


              NET ATOMIC CHARGES AND DIPOLE CONTRIBUTIONS

  ATOM NO.                 TYPE                        CHARGE      No. of ELECS.   s-Pop       p-Pop       
    1          O(HETATM    1  O1  HET A   1)          -0.307182        6.3072     1.88091     4.42627
    2          O(HETATM    2  O2  HET A   1)          -0.299963        6.3000     1.87997     4.41999
    3          O(HETATM    3  O3  HET A   1)          -0.321187        6.3212     1.88118     4.44001
    4          O(HETATM    4  O4  HET A   1)          -0.287638        6.2876     1.88213     4.40550
    5          N(HETATM    5  N   HET A   1)          -0.111574        5.1116     1.51763     3.59394
    6          C(HETATM    6  C1  HET A   1)          -0.113141        4.1131     1.08342     3.02973
    7          C(HETATM    7  C2  HET A   1)           0.145954        3.8540     1.06835     2.78570
    8          C(HETATM    8  C3  HET A   1)          -0.299486        4.2995     1.06057     3.23892
    9          C(HETATM    9  C4  HET A   1)          -0.126700        4.1267     1.04666     3.08004
   10          C(HETATM   10  C5  HET A   1)           0.044094        3.9559     1.06654     2.88937
   11          C(HETATM   11  C6  HET A   1)          -0.133696        4.1337     1.04677     3.08693
   12          C(HETATM   12  C7  HET A   1)           0.084594        3.9154     1.10256     2.81285
   13          C(HETATM   13  C8  HET A   1)          -0.161380        4.1614     1.09158     3.06980
   14          C(HETATM   14  C9  HET A   1)           0.047106        3.9529     1.06294     2.88996
   15          C(HETATM   15  C10 HET A   1)          -0.159221        4.1592     1.07393     3.08529
   16          C(HETATM   16  C11 HET A   1)          -0.228299        4.2283     1.07294     3.15536
   17          C(HETATM   17  C12 HET A   1)           0.139684        3.8603     1.07761     2.78271
   18          C(HETATM   18  C13 HET A   1)           0.121316        3.8787     1.08076     2.79792
   19          C(HETATM   19  C14 HET A   1)           0.193851        3.8061     1.08959     2.71656
   20          C(HETATM   20  C15 HET A   1)          -0.161264        4.1613     1.08360     3.07766
   21          C(HETATM   21  C16 HET A   1)           0.121210        3.8788     1.08310     2.79569
   22          C(HETATM   22  C17 HET A   1)          -0.086012        4.0860     1.08819     2.99782
   23          C(HETATM   23  C18 HET A   1)           0.150705        3.8493     1.14529     2.70400
   24          C(HETATM   24  C19 HET A   1)           0.161235        3.8388     1.14726     2.69151
   25          H(HETATM   25 1H1  HET A   1)           0.190430        0.8096     0.80957
   26          H(HETATM   26 2H1  HET A   1)           0.173575        0.8264     0.82643
   27          H(HETATM   27 1H3  HET A   1)           0.192367        0.8076     0.80763
   28          H(HETATM   28 2H3  HET A   1)           0.185870        0.8141     0.81413
   29          H(HETATM   29  H7  HET A   1)           0.213200        0.7868     0.78680
   30          H(HETATM   30  H8  HET A   1)           0.205858        0.7941     0.79414
   31          H(HETATM   31  H10 HET A   1)           0.186016        0.8140     0.81398
   32          H(HETATM   32  H11 HET A   1)           0.196941        0.8031     0.80306
   33          H(HETATM   33  H15 HET A   1)           0.190883        0.8091     0.80912
   34          H(HETATM   34  H17 HET A   1)           0.201931        0.7981     0.79807
   35          H(HETATM   35 1H18 HET A   1)           0.161204        0.8388     0.83880
   36          H(HETATM   36 2H18 HET A   1)           0.161085        0.8389     0.83892
   37          H(HETATM   37 1H19 HET A   1)           0.163711        0.8363     0.83629
   38          H(HETATM   38 2H19 HET A   1)           0.163924        0.8361     0.83608
 DIPOLE           X         Y         Z       TOTAL
 POINT-CHG.     1.263     3.423     0.743     3.723
 HYBRID         0.246     0.407     0.264     0.544
 SUM            1.508     3.830     1.007     4.238


          ATOMIC ORBITAL ELECTRON POPULATIONS

                   Atom                  s        px        py        pz   
   O(HETATM    1  O1  HET A   1)   1.88091   1.32226   1.20744   1.89658
   O(HETATM    2  O2  HET A   1)   1.87997   1.33262   1.21248   1.87489
   O(HETATM    3  O3  HET A   1)   1.88118   1.43248   1.23050   1.77702
   O(HETATM    4  O4  HET A   1)   1.88213   1.40723   1.22153   1.77675
   N(HETATM    5  N   HET A   1)   1.51763   1.16889   1.10994   1.31511
   C(HETATM    6  C1  HET A   1)   1.08342   0.80800   1.13403   1.08769
   C(HETATM    7  C2  HET A   1)   1.06835   0.95168   0.86442   0.96960
   C(HETATM    8  C3  HET A   1)   1.06057   1.09823   1.00025   1.14044
   C(HETATM    9  C4  HET A   1)   1.04666   0.98229   0.94847   1.14928
   C(HETATM   10  C5  HET A   1)   1.06654   0.95624   0.96738   0.96575
   C(HETATM   11  C6  HET A   1)   1.04677   0.99049   0.99902   1.09742
   C(HETATM   12  C7  HET A   1)   1.10256   0.98033   0.91437   0.91815
   C(HETATM   13  C8  HET A   1)   1.09158   0.99104   1.07228   1.00648
   C(HETATM   14  C9  HET A   1)   1.06294   0.98075   0.94955   0.95966
   C(HETATM   15  C10 HET A   1)   1.07393   1.09225   0.95204   1.04100
   C(HETATM   16  C11 HET A   1)   1.07294   1.10379   0.95534   1.09622
   C(HETATM   17  C12 HET A   1)   1.07761   0.95841   0.85293   0.97136
   C(HETATM   18  C13 HET A   1)   1.08076   0.94206   0.85055   1.00532
   C(HETATM   19  C14 HET A   1)   1.08959   0.94079   0.84753   0.92824
   C(HETATM   20  C15 HET A   1)   1.08360   0.98641   1.06725   1.02400
   C(HETATM   21  C16 HET A   1)   1.08310   0.94433   0.85519   0.99617
   C(HETATM   22  C17 HET A   1)   1.08819   1.07724   0.95109   0.96949
   C(HETATM   23  C18 HET A   1)   1.14529   0.68573   0.88076   1.13751
   C(HETATM   24  C19 HET A   1)   1.14726   0.75249   0.87770   1.06132
   H(HETATM   25 1H1  HET A   1)   0.80957
   H(HETATM   26 2H1  HET A   1)   0.82643
   H(HETATM   27 1H3  HET A   1)   0.80763
   H(HETATM   28 2H3  HET A   1)   0.81413
   H(HETATM   29  H7  HET A   1)   0.78680
   H(HETATM   30  H8  HET A   1)   0.79414
   H(HETATM   31  H10 HET A   1)   0.81398
   H(HETATM   32  H11 HET A   1)   0.80306
   H(HETATM   33  H15 HET A   1)   0.80912
   H(HETATM   34  H17 HET A   1)   0.79807
   H(HETATM   35 1H18 HET A   1)   0.83880
   H(HETATM   36 2H18 HET A   1)   0.83892
   H(HETATM   37 1H19 HET A   1)   0.83629
   H(HETATM   38 2H19 HET A   1)   0.83608

           DATA FOR GRAPH WRITTEN TO DISK

 **********************
 *                    *
 * JOB ENDED NORMALLY *
 *                    *
 **********************



 TOTAL JOB TIME:             2.91 SECONDS

 == MOPAC DONE ==
