 *******************************************************************************
 **                                                                           **
 **                              MOPAC v22.0.6                                **
 **                                                                           **
 *******************************************************************************
 **          Digital Object Identifier (DOI): 10.5281/zenodo.6511958          **
 **    Visit the DOI location for information on how to cite this program.    **
 *******************************************************************************

                              PM7 CALCULATION RESULTS

 *******************************************************************************
 *  CALCULATION DONE:                                Sun Oct 12 20:06:55 2025  *
 *  PM7        - The PM7 Hamiltonian to be used
 *  PDBOUT     - PRINT GEOMETRY IN PDB FORMAT
 *  RESIDUES   - DETERMINE THE SEQUENCE OF RESIDUES
 *
 *
 *
 *                 CHARGE ON SYSTEM = +1
 *
 *
 *
 *  EF         - USE EF ROUTINE FOR MINIMUM SEARCH
 *  T=         - A TIME OF 172800.0 SECONDS REQUESTED
 *  DUMP=N     - RESTART FILE WRITTEN EVERY 7200.0 SECONDS REQUESTED
 *  NOXYZ      - CARTESIAN COORDINATES NOT TO BE PRINTED
 *  PRNT       - EXTRA PRINTING IN EF ROUTINE
 *  GRAPH      - GENERATE FILE FOR GRAPHICS
 *  COMPFG     - PRINT HEAT OF FORMATION CALC'D IN COMPFG
 *******************************************************************************
PM7 CHARGE=+1 EF NOXYZ PRNT=2 PDBOUT COMPFG GRAPHF
 (1R,9S)-7-aza-11-azoniatricyclo[7.3.1.02,7]trideca-2,4-dien-6-one

  ATOM    CHEMICAL      BOND LENGTH      BOND ANGLE     TWIST ANGLE 
 NUMBER    SYMBOL       (ANGSTROMS)      (DEGREES)       (DEGREES) 
   (I)                     NA:I           NB:NA:I       NC:NB:NA:I       NA    NB    NC 
     1       O          0.00000000  *    0.0000000  *    0.0000000  *     0     0     0
     2       N          2.26258800  *    0.0000000  *    0.0000000  *     1     0     0
     3       N          3.46754800  *  132.7208110  *    0.0000000  *     2     1     0
     4       C          2.57845900  *  122.2365890  *   60.1123230  *     2     1     3
     5       C          2.50918000  *   61.4805880  * -179.4060810  *     4     2     1
     6       C          1.54311600  *   35.6229340  * -130.5645760  *     5     4     2
     7       C          1.48395100  *   90.7739760  *   68.5276090  *     2     1     3
     8       C          1.50560800  *   70.4431180  *   70.0404010  *     3     2     1
     9       C          1.50252500  *   75.5658330  * -156.1932600  *     3     2     1
    10       C          1.44873900  *  150.0533070  * -119.3081950  *     2     1     3
    11       C          1.39457100  *  120.0540180  *    2.8948610  *    10     2     1
    12       C          1.21613500  *   30.7185830  *  115.9604870  *     1     2     3
    13       C          1.38598600  *  120.4259200  *   -0.4549470  *    11    10     2
    14       C          1.43314100  *  118.7416610  *    0.0920450  *    13    11    10
    15       H          1.09251800  *  136.9453430  *   39.6589280  *     4     2     1
    16       H          1.09284300  *  143.8958880  * -122.4726100  *     5     4     2
    17       H          1.09313400  *  109.8694210  *  120.2742130  *     6     5     4
    18       H          1.09309100  *  110.4220900  * -121.3376310  *     6     5     4
    19       H          1.09377200  *  106.8971730  *   72.5257810  *     7     2     1
    20       H          1.09404400  *  109.1542880  *  -43.3289090  *     7     2     1
    21       H          1.09314300  *  116.8665860  *  -91.8579240  *     8     3     2
    22       H          1.09367000  *   94.3309180  *  154.5481670  *     8     3     2
    23       H          1.09355900  *  100.7359270  * -149.6001940  *     9     3     2
    24       H          1.09316200  *  112.8860760  *   94.2700640  *     9     3     2
    25       H          1.08510900  *  122.1323890  * -179.3000110  *    14    13    11
    26       H          1.08765100  *  120.1754970  *  178.7562600  *    11    10     2
    27       H          1.08672600  *  120.1154140  *  179.6212420  *    13    11    10
    28       H          1.03201400  *   21.8607600  *  -52.0345270  *     3     2     1
    29       H          1.03286400  *  116.8242300  *  136.1179380  *     3     2     1


 General Reference for PM7:
 "Optimization of Parameters for Semiempirical Methods VI: More Modifications to the 
 NDDO Approximations and Re-optimization of Parameters", J. J. P. Stewart, J. Mol. Mod., 1:32, 19 (2013)
 https://link.springer.com/article/10.1007/s00894-012-1667-x

           Empirical Formula: C11 H15 N2 O  =    29 atoms



      MOLECULAR POINT GROUP   :   C1  


      RHF CALCULATION, NO. OF DOUBLY OCCUPIED LEVELS = 37


          Geometry optimization using EF

  HEAT OF FORMATION        290.40709401046479    
 PARAMETERS        0.000   0.000   0.000   2.263   0.000   0.000   3.468   2.316
   0.000   2.578   2.133   1.049   2.509   1.073   3.152   1.543   0.622   4.004

   1.484   1.584   1.196   1.506   1.229   1.222   1.503   1.319   3.557   1.449

   2.619   4.201   1.395   2.095   0.051   1.216   0.536   2.024   1.386   2.102

   6.275   1.433   2.072   0.002   1.093   2.390   0.692   1.093   2.511   4.146

   1.093   1.918   2.099   1.093   1.927   4.165   1.094   1.866   1.266   1.094

   1.905   5.527   1.093   2.040   4.680   1.094   1.646   2.697   1.094   1.758

   3.672   1.093   1.970   1.645   1.085   2.132   3.154   1.088   2.097   3.120

   1.087   2.096   3.135   1.032   0.382   5.375   1.033   2.039   2.376
 GRADIENT         -0.000  -0.000   0.000 -34.567   0.000   0.000 -14.645  36.091
   0.000  22.037  -8.631  -3.986   8.788  50.677  34.350   1.932   8.836  -2.476

   0.800  18.368  -7.723-145.229  -9.773  20.484-144.821 -10.939 -28.333  60.385

  25.022  -1.342  47.287  37.458  -0.617  12.214 -86.519  -3.412 -39.625  21.033

  -1.938  86.705  -0.109  -1.467 -20.012   1.155   0.425 -20.019  -1.105  -1.506

 -12.279  -1.246  -2.140  -8.419  -3.748   6.499 -18.971  -1.344   4.107 -16.469

   3.739  -5.733 -13.909  14.753  -0.842 -32.623 -48.902 -13.023 -27.226 -32.233

  11.023 -17.369   7.686  -2.787  -1.403   2.291   0.154  -2.645   0.957  -1.046

  -2.213  -4.745  -0.798 -70.654 -80.238  -6.617 -73.004 -76.160   3.925

          DIAGONAL MATRIX USED AS START HESSIAN

*REMARK   3 HET = Not identified; C 11 H 15 N 2 O    =    29 atoms res:    1
 PM7 CHARGE=+1 EF NOXYZ PRNT=2 PDBOUT COMPFG GRAPHF
 (1R,9S)-7-aza-11-azoniatricyclo[7.3.1.02,7]trideca-2,4-dien-6-one

  O(HETATM    1  O   HET A   1)   0.00000000 +1    0.0000000 +1    0.0000000 +1
  N(HETATM    2  N1  HET A   1)   2.26258800 +1    0.0000000 +1    0.0000000 +1     1     0     0
  N(HETATM    3  N2  HET A   1)   3.46754800 +1  132.7208110 +1    0.0000000 +1     2     1     0
  C(HETATM    4  C1  HET A   1)   2.57845900 +1  122.2365890 +1   60.1123230 +1     2     1     3
  C(HETATM    5  C2  HET A   1)   2.50918000 +1   61.4805880 +1 -179.4060810 +1     4     2     1
  C(HETATM    6  C3  HET A   1)   1.54311600 +1   35.6229340 +1 -130.5645760 +1     5     4     2
  C(HETATM    7  C4  HET A   1)   1.48395100 +1   90.7739760 +1   68.5276090 +1     2     1     3
  C(HETATM    8  C5  HET A   1)   1.50560800 +1   70.4431180 +1   70.0404010 +1     3     2     1
  C(HETATM    9  C6  HET A   1)   1.50252500 +1   75.5658330 +1 -156.1932600 +1     3     2     1
  C(HETATM   10  C7  HET A   1)   1.44873900 +1  150.0533070 +1 -119.3081950 +1     2     1     3
  C(HETATM   11  C8  HET A   1)   1.39457100 +1  120.0540180 +1    2.8948610 +1    10     2     1
  C(HETATM   12  C9  HET A   1)   1.21613500 +1   30.7185830 +1  115.9604870 +1     1     2     3
  C(HETATM   13  C10 HET A   1)   1.38598600 +1  120.4259200 +1   -0.4549470 +1    11    10     2
  C(HETATM   14  C11 HET A   1)   1.43314100 +1  118.7416610 +1    0.0920450 +1    13    11    10
  H(HETATM   15  H1  HET A   1)   1.09251800 +1  136.9453430 +1   39.6589280 +1     4     2     1
  H(HETATM   16  H2  HET A   1)   1.09284300 +1  143.8958880 +1 -122.4726100 +1     5     4     2
  H(HETATM   17 1H3  HET A   1)   1.09313400 +1  109.8694210 +1  120.2742130 +1     6     5     4
  H(HETATM   18 2H3  HET A   1)   1.09309100 +1  110.4220900 +1 -121.3376310 +1     6     5     4
  H(HETATM   19 1H4  HET A   1)   1.09377200 +1  106.8971730 +1   72.5257810 +1     7     2     1
  H(HETATM   20 2H4  HET A   1)   1.09404400 +1  109.1542880 +1  -43.3289090 +1     7     2     1
  H(HETATM   21 1H5  HET A   1)   1.09314300 +1  116.8665860 +1  -91.8579240 +1     8     3     2
  H(HETATM   22 2H5  HET A   1)   1.09367000 +1   94.3309180 +1  154.5481670 +1     8     3     2
  H(HETATM   23 1H6  HET A   1)   1.09355900 +1  100.7359270 +1 -149.6001940 +1     9     3     2
  H(HETATM   24 2H6  HET A   1)   1.09316200 +1  112.8860760 +1   94.2700640 +1     9     3     2
  H(HETATM   25  H11 HET A   1)   1.08510900 +1  122.1323890 +1 -179.3000110 +1    14    13    11
  H(HETATM   26  H8  HET A   1)   1.08765100 +1  120.1754970 +1  178.7562600 +1    11    10     2
  H(HETATM   27  H10 HET A   1)   1.08672600 +1  120.1154140 +1  179.6212420 +1    13    11    10
  H(HETATM   28 1H2  HET A   1)   1.03201400 +1   21.8607600 +1  -52.0345270 +1     3     2     1
  H(HETATM   29 2H2  HET A   1)   1.03286400 +1  116.8242300 +1  136.1179380 +1     3     2     1

 XPARAM 
  1  1    0.0000  1  2    0.0000  1  3    0.0000  2  1    2.2626  2  2    0.0000
  2  3    0.0000  3  1    3.4675  3  2    2.3164  3  3    0.0000  4  1    2.5785
  4  2    2.1334  4  3    1.0492  5  1    2.5092  5  2    1.0730  5  3    3.1520
  6  1    1.5431  6  2    0.6217  6  3    4.0044  7  1    1.4840  7  2    1.5843
  7  3    1.1960  8  1    1.5056  8  2    1.2295  8  3    1.2224  9  1    1.5025
  9  2    1.3189  9  3    3.5571 10  1    1.4487 10  2    2.6189 10  3    4.2009
 11  1    1.3946 11  2    2.0953 11  3    0.0505 12  1    1.2161 12  2    0.5361
 12  3    2.0239 13  1    1.3860 13  2    2.1018 13  3    6.2752 14  1    1.4331
 14  2    2.0724 14  3    0.0016 15  1    1.0925 15  2    2.3901 15  3    0.6922
 16  1    1.0928 16  2    2.5115 16  3    4.1456 17  1    1.0931 17  2    1.9176
 17  3    2.0992 18  1    1.0931 18  2    1.9272 18  3    4.1654 19  1    1.0938
 19  2    1.8657 19  3    1.2658 20  1    1.0940 20  2    1.9051 20  3    5.5270
 21  1    1.0931 21  2    2.0397 21  3    4.6800 22  1    1.0937 22  2    1.6464
 22  3    2.6974 23  1    1.0936 23  2    1.7582 23  3    3.6722 24  1    1.0932
 24  2    1.9702 24  3    1.6453 25  1    1.0851 25  2    2.1316 25  3    3.1538
 26  1    1.0877 26  2    2.0975 26  3    3.1199 27  1    1.0867 27  2    2.0964
 27  3    3.1350 28  1    1.0320 28  2    0.3815 28  3    5.3750 29  1    1.0329
 29  2    2.0390 29  3    2.3757
 grad
      -0.00000   -0.00000    0.00000  -34.56724    0.00000    0.00000  -14.64478   36.09061
       0.00000   22.03676   -8.63150   -3.98600    8.78815   50.67688   34.35041    1.93182
       8.83563   -2.47561    0.79970   18.36777   -7.72286 -145.22859   -9.77310   20.48394
    -144.82090  -10.93856  -28.33298   60.38455   25.02235   -1.34172   47.28676   37.45809
      -0.61664   12.21370  -86.51858   -3.41212  -39.62487   21.03275   -1.93820   86.70480
      -0.10859   -1.46669  -20.01214    1.15537    0.42509  -20.01868   -1.10476   -1.50620
     -12.27856   -1.24606   -2.14031   -8.41927   -3.74828    6.49857  -18.97076   -1.34392
       4.10678  -16.46906    3.73881   -5.73343  -13.90948   14.75257   -0.84216  -32.62332
     -48.90206  -13.02286  -27.22616  -32.23330   11.02263  -17.36948    7.68557   -2.78669
      -1.40340    2.29077    0.15421   -2.64471    0.95737   -1.04640   -2.21343   -4.74543
      -0.79770  -70.65355  -80.23752   -6.61682  -73.00359  -76.16021    3.92523
 CYCLE:     1 TIME:   0.016 TIME LEFT:  2.00D  GRAD.:   327.039 HEAT:  290.4071

          HESSIAN HAS  0 NEGATIVE EIGENVALUE(S)
  MIN SEARCH, CORRECT HESSIAN, TRYING PURE NR STEP
 LAMBDA THAT MINIMIZES ALONG ALL MODES =        0.000000000
 PURE NR-STEP HAS LENGTH   0.50867
 LAMBDA THAT MINIMIZES ALONG ALL MODES =     -117.896479249
 P-RFO-STEP   HAS LENGTH   0.40136
 LAMBDA THAT MINIMIZES ALONG ALL MODES =     -827.630415812
 QA/TRIM-STEP HAS LENGTH   0.20000

  HEAT OF FORMATION        286.49157495544932    
 PARAMETERS       -0.002   0.001  -0.012   2.280   0.001   0.005   3.474   2.290
   0.013   2.561   2.141   1.059   2.492   1.036   3.124   1.526   0.616   4.006

   1.478   1.571   1.203   1.579   1.238   1.202   1.568   1.328   3.584   1.399

   2.601   4.201   1.367   2.068   0.050   1.201   0.602   2.025   1.384   2.087

   6.276   1.385   2.073   0.002   1.102   2.390   0.691   1.099   2.513   4.146

   1.097   1.919   2.100   1.093   1.930   4.158   1.102   1.867   1.261   1.097

   1.903   5.532   1.095   2.029   4.680   1.108   1.684   2.709   1.104   1.783

   3.660   1.101   1.965   1.647   1.082   2.130   3.153   1.085   2.097   3.120

   1.084   2.100   3.135   1.065   0.442   5.380   1.070   2.097   2.371
 GRADIENT         -0.000  -0.000   0.000 -14.481   0.000   0.000  81.937-236.765
   0.000 -57.547 161.706  72.097   2.971-174.738-138.127  -0.195   8.300  14.512

   1.040   4.455  -3.689 -60.158  52.974 -57.126 -85.717 100.530  39.347-124.931

-362.324  -7.043-351.795-805.919 -12.809 139.550 258.222  -0.898-182.463-783.477

  -5.940 192.836-380.649  -3.852 -12.783   0.042  -1.047 -13.664  -4.573   6.912

 -11.637  -1.518  -2.177 -10.237  -2.304   6.011 -12.961  -1.919   3.685 -12.820

   1.831  -3.730  -2.450  11.676  -8.809 -11.537 -31.967  -6.065  -4.009 -25.154

  -3.137  -1.033   6.871   4.597 -27.586  20.375   0.192  -5.030  -2.438  -1.098

  -8.313  -1.118  -0.868 -33.274 -58.649  -6.186 -30.093 -56.780   2.939
       HoF         ACTUAL,  PREDICTED ENERGY CHANGE, RATIO
   286.4915750    -3.9155191         -47.6347847    0.0821987
     STEPSIZE USED IS  0.20000
 CALCULATED STEP
    -0.001564  0.001388 -0.012161  0.017450  0.000898  0.004540  0.006847 -0.026500
     0.012924 -0.017002  0.007311  0.010062 -0.017583 -0.037290 -0.027656 -0.017007
    -0.005591  0.001903 -0.005986 -0.012842  0.006588  0.073776  0.008352 -0.020707
     0.065011  0.009297  0.026774 -0.049472 -0.017762  0.000110 -0.027164 -0.027239
    -0.000929 -0.015388  0.066229  0.000687 -0.002412 -0.014687  0.000301 -0.048556
     0.001049  0.000151  0.009905 -0.000568 -0.001430  0.006248  0.001163  0.000449
     0.004164  0.001252  0.001073 -0.000140  0.003154 -0.007334  0.008708  0.001319
    -0.005004  0.002819 -0.002474  0.004571  0.002322 -0.010777 -0.000192  0.014652
     0.037153  0.011667  0.010668  0.024606 -0.011734  0.007433 -0.005479  0.001701
    -0.002898 -0.001403 -0.001177 -0.002184 -0.000399 -0.000004 -0.002436  0.003897
    -0.000248  0.032575  0.060781  0.005330  0.037101  0.057684 -0.004945
     NEW TRUST RADIUS =  0.20000

     HESSIAN IS BEING UPDATED USING THE BFGS UPDATE

*REMARK   3 HET = Not identified; C 11 H 15 N 2 O    =    29 atoms res:    1
 PM7 CHARGE=+1 EF NOXYZ PRNT=2 PDBOUT COMPFG GRAPHF
 (1R,9S)-7-aza-11-azoniatricyclo[7.3.1.02,7]trideca-2,4-dien-6-one

  O(HETATM    1  O   HET A   1)  -0.00156450 +1    0.0013876 +1   -0.0121610 +1
  N(HETATM    2  N1  HET A   1)   2.28003786 +1    0.0514283 +1    0.2601141 +1     1     0     0
  N(HETATM    3  N2  HET A   1)   3.47439515 +1  131.2024716 +1    0.7405188 +1     2     1     0
  C(HETATM    4  C1  HET A   1)   2.56145675 +1  122.6554755 +1   60.6888089 +1     2     1     3
  C(HETATM    5  C2  HET A   1)   2.49159748 +1   59.3440478 +1  179.0093425 +1     4     2     1
  C(HETATM    6  C3  HET A   1)   1.52610852 +1   35.3025921 +1 -130.4555632 +1     5     4     2
  C(HETATM    7  C4  HET A   1)   1.47796530 +1   90.0381965 +1   68.9050522 +1     2     1     3
  C(HETATM    8  C5  HET A   1)   1.57938365 +1   70.9216375 +1   68.8540056 +1     3     2     1
  C(HETATM    9  C6  HET A   1)   1.56753585 +1   76.0985199 +1 -154.6591973 +1     3     2     1
  C(HETATM   10  C7  HET A   1)   1.39926696 +1  149.0356142 +1 -119.3018771 +1     2     1     3
  C(HETATM   11  C8  HET A   1)   1.36740672 +1  118.4933238 +1    2.8416447 +1    10     2     1
  C(HETATM   12  C9  HET A   1)   1.20074656 +1   34.5132016 +1  115.9998411 +1     1     2     3
  C(HETATM   13  C10 HET A   1)   1.38357427 +1  119.5844064 +1   -0.4376976 +1    11    10     2
  C(HETATM   14  C11 HET A   1)   1.38458535 +1  118.8017674 +1    0.1006700 +1    13    11    10
  H(HETATM   15  H1  HET A   1)   1.10242307 +1  136.9127918 +1   39.5770084 +1     4     2     1
  H(HETATM   16  H2  HET A   1)   1.09909116 +1  143.9625210 +1 -122.4468893 +1     5     4     2
  H(HETATM   17 1H3  HET A   1)   1.09729822 +1  109.9411755 +1  120.3356856 +1     6     5     4
  H(HETATM   18 2H3  HET A   1)   1.09295128 +1  110.6028165 +1 -121.7578314 +1     6     5     4
  H(HETATM   19 1H4  HET A   1)   1.10248045 +1  106.9727519 +1   72.2390464 +1     7     2     1
  H(HETATM   20 2H4  HET A   1)   1.09686323 +1  109.0125445 +1  -43.0669947 +1     7     2     1
  H(HETATM   21 1H5  HET A   1)   1.09546518 +1  116.2491270 +1  -91.8689041 +1     8     3     2
  H(HETATM   22 2H5  HET A   1)   1.10832185 +1   96.4596188 +1  155.2166240 +1     8     3     2
  H(HETATM   23 1H6  HET A   1)   1.10422720 +1  102.1457284 +1 -150.2724799 +1     9     3     2
  H(HETATM   24 2H6  HET A   1)   1.10059519 +1  112.5721571 +1   94.3675464 +1     9     3     2
  H(HETATM   25  H11 HET A   1)   1.08221106 +1  122.0520312 +1 -179.3674691 +1    14    13    11
  H(HETATM   26  H8  HET A   1)   1.08546708 +1  120.1526610 +1  178.7560379 +1    11    10     2
  H(HETATM   27  H10 HET A   1)   1.08429004 +1  120.3386999 +1  179.6070540 +1    13    11    10
  H(HETATM   28 1H2  HET A   1)   1.06458929 +1   25.3432312 +1  -51.7291284 +1     3     2     1
  H(HETATM   29 2H2  HET A   1)   1.06996507 +1  120.1293073 +1  135.8346335 +1     3     2     1

 XPARAM 
  1  1   -0.0016  1  2    0.0014  1  3   -0.0122  2  1    2.2800  2  2    0.0009
  2  3    0.0045  3  1    3.4744  3  2    2.2899  3  3    0.0129  4  1    2.5615
  4  2    2.1407  4  3    1.0592  5  1    2.4916  5  2    1.0357  5  3    3.1243
  6  1    1.5261  6  2    0.6161  6  3    4.0063  7  1    1.4780  7  2    1.5715
  7  3    1.2026  8  1    1.5794  8  2    1.2378  8  3    1.2017  9  1    1.5675
  9  2    1.3282  9  3    3.5839 10  1    1.3993 10  2    2.6012 10  3    4.2010
 11  1    1.3674 11  2    2.0681 11  3    0.0496 12  1    1.2007 12  2    0.6024
 12  3    2.0246 13  1    1.3836 13  2    2.0871 13  3    6.2755 14  1    1.3846
 14  2    2.0735 14  3    0.0018 15  1    1.1024 15  2    2.3896 15  3    0.6907
 16  1    1.0991 16  2    2.5126 16  3    4.1461 17  1    1.0973 17  2    1.9188
 17  3    2.1003 18  1    1.0930 18  2    1.9304 18  3    4.1581 19  1    1.1025
 19  2    1.8670 19  3    1.2608 20  1    1.0969 20  2    1.9026 20  3    5.5315
 21  1    1.0955 21  2    2.0289 21  3    4.6798 22  1    1.1083 22  2    1.6835
 22  3    2.7090 23  1    1.1042 23  2    1.7828 23  3    3.6604 24  1    1.1006
 24  2    1.9648 24  3    1.6470 25  1    1.0822 25  2    2.1302 25  3    3.1526
 26  1    1.0855 26  2    2.0971 26  3    3.1199 27  1    1.0843 27  2    2.1003
 27  3    3.1347 28  1    1.0646 28  2    0.4423 28  3    5.3803 29  1    1.0700
 29  2    2.0967 29  3    2.3708
 grad
      -0.00000   -0.00000    0.00000  -14.48122    0.00000    0.00000   81.93697 -236.76470
       0.00000  -57.54667  161.70605   72.09701    2.97057 -174.73819 -138.12687   -0.19548
       8.29963   14.51169    1.04032    4.45483   -3.68917  -60.15779   52.97368  -57.12575
     -85.71732  100.52957   39.34750 -124.93150 -362.32432   -7.04334 -351.79516 -805.91882
     -12.80888  139.55040  258.22175   -0.89823 -182.46309 -783.47736   -5.94018  192.83567
    -380.64852   -3.85160  -12.78286    0.04228   -1.04663  -13.66416   -4.57293    6.91239
     -11.63666   -1.51813   -2.17661  -10.23700   -2.30436    6.01066  -12.96105   -1.91855
       3.68486  -12.81954    1.83123   -3.73035   -2.45013   11.67577   -8.80946  -11.53677
     -31.96689   -6.06494   -4.00894  -25.15426   -3.13691   -1.03255    6.87091    4.59659
     -27.58589   20.37521    0.19220   -5.02995   -2.43780   -1.09775   -8.31314   -1.11834
      -0.86800  -33.27385  -58.64937   -6.18579  -30.09309  -56.77957    2.93876
 CYCLE:     2 TIME:   0.016 TIME LEFT:  2.00D  GRAD.:  1423.117 HEAT:  286.4916

          HESSIAN HAS  0 NEGATIVE EIGENVALUE(S)
  MIN SEARCH, CORRECT HESSIAN, TRYING PURE NR STEP
 LAMBDA THAT MINIMIZES ALONG ALL MODES =        0.000000000
 PURE NR-STEP HAS LENGTH   2.47344
 LAMBDA THAT MINIMIZES ALONG ALL MODES =     -280.849114021
 P-RFO-STEP   HAS LENGTH   0.68639
 LAMBDA THAT MINIMIZES ALONG ALL MODES =    -1327.813285036
 QA/TRIM-STEP HAS LENGTH   0.20000

  HEAT OF FORMATION        263.28009334556555    
 PARAMETERS       -0.003  -0.011  -0.030   2.298  -0.010   0.002   3.472   2.286
   0.027   2.548   2.114   1.059   2.470   1.008   3.126   1.505   0.588   4.001

   1.470   1.546   1.207   1.653   1.224   1.195   1.632   1.302   3.594   1.358

   2.607   4.205   1.373   2.131   0.052   1.170   0.607   2.021   1.390   2.139

   6.278   1.320   2.109   0.003   1.112   2.385   0.690   1.105   2.507   4.146

   1.101   1.915   2.101   1.092   1.926   4.153   1.111   1.864   1.257   1.099

   1.893   5.535   1.096   2.012   4.681   1.122   1.711   2.717   1.113   1.799

   3.653   1.107   1.955   1.647   1.081   2.121   3.152   1.083   2.091   3.120

   1.081   2.098   3.135   1.097   0.489   5.383   1.107   2.143   2.367
 GRADIENT         -0.000  -0.000   0.000  53.610   0.000   0.000  67.951-174.955
   0.000-100.111 156.700  57.087 -41.800-307.251-108.672  -9.545 -73.208  19.356

  -9.171  18.234  -1.114  -4.640  40.772 -51.349 -26.198 103.818  59.157  77.489

 280.528  -9.996  84.229 267.586   0.604-127.448 -43.794  -3.145 -14.553 233.615

   1.896-110.386 104.805   1.154 -10.709   0.365  -2.590 -16.856   3.865   6.542

 -14.436   0.690  -6.649 -15.638  -0.812   9.637  -7.973  -3.895   2.097 -12.332

  -0.306  -3.402   0.189  15.110  -8.289   1.914 -17.580  -4.324   6.475 -15.821

  -4.966   6.051   8.172   6.886  -2.493 -15.847   0.065  -7.544  -0.114  -1.069

 -14.452   5.283  -0.795  -5.696 -48.821  -6.997   6.867 -45.927   2.415
       HoF         ACTUAL,  PREDICTED ENERGY CHANGE, RATIO
   263.2800933   -23.2114816         -97.7395491    0.2374830
     STEPSIZE USED IS  0.20000
 CALCULATED STEP
    -0.001702 -0.012060 -0.017858  0.017643 -0.010692 -0.002261 -0.002341 -0.003564
     0.014033 -0.013050 -0.027027 -0.000663 -0.021133 -0.028163  0.001388 -0.021227
    -0.028079 -0.004876 -0.007997 -0.024986  0.003999  0.073598 -0.014132 -0.006294
     0.064752 -0.026110  0.010141 -0.041382  0.005720  0.003761  0.005915  0.063214
     0.002057 -0.030389  0.004193 -0.004071  0.006428  0.051885  0.002043 -0.065034
     0.035060  0.001437  0.010039 -0.004228 -0.000277  0.005477 -0.005300 -0.000104
     0.004059 -0.003833  0.000963 -0.000842 -0.004024 -0.005478  0.008787 -0.003011
    -0.003735  0.001741 -0.010095  0.003365  0.000579 -0.017020  0.001219  0.013819
     0.027319  0.007950  0.009023  0.015884 -0.007081  0.006321 -0.009700  0.000450
    -0.001533 -0.009411 -0.000585 -0.002942 -0.005893  0.000304 -0.002880 -0.002704
     0.000120  0.032096  0.046650  0.002703  0.036936  0.046597 -0.003341
     NEW TRUST RADIUS =  0.20000
*REMARK   3 HET = Not identified; C 11 H 15 N 2 O    =    29 atoms res:    1
 PM7 CHARGE=+1 EF NOXYZ PRNT=2 PDBOUT COMPFG GRAPHF
 (1R,9S)-7-aza-11-azoniatricyclo[7.3.1.02,7]trideca-2,4-dien-6-one

  O(HETATM    1  O   HET A   1)  -0.00326656 +1   -0.0106720 +1   -0.0300189 +1
  N(HETATM    2  N1  HET A   1)   2.29768131 +1   -0.5611646 +1    0.1305534 +1     1     0     0
  N(HETATM    3  N2  HET A   1)   3.47205458 +1  130.9982860 +1    1.5445463 +1     2     1     0
  C(HETATM    4  C1  HET A   1)   2.54840725 +1  121.1069691 +1   60.6507958 +1     2     1     3
  C(HETATM    5  C2  HET A   1)   2.47046476 +1   57.7304324 +1  179.0888580 +1     4     2     1
  C(HETATM    6  C3  HET A   1)   1.50488145 +1   33.6937688 +1 -130.7349563 +1     5     4     2
  C(HETATM    7  C4  HET A   1)   1.46996795 +1   88.6065781 +1   69.1341589 +1     2     1     3
  C(HETATM    8  C5  HET A   1)   1.65298128 +1   70.1119277 +1   68.4933827 +1     3     2     1
  C(HETATM    9  C6  HET A   1)   1.63228748 +1   74.6025214 +1 -154.0781366 +1     3     2     1
  C(HETATM   10  C7  HET A   1)   1.35788493 +1  149.3633434 +1 -119.0864016 +1     2     1     3
  C(HETATM   11  C8  HET A   1)   1.37332220 +1  122.1152427 +1    2.9594777 +1    10     2     1
  C(HETATM   12  C9  HET A   1)   1.17035783 +1   34.7534317 +1  115.7665700 +1     1     2     3
  C(HETATM   13  C10 HET A   1)   1.39000210 +1  122.5571934 +1   -0.3206376 +1    11    10     2
  C(HETATM   14  C11 HET A   1)   1.31955102 +1  120.8105841 +1    0.1830163 +1    13    11    10
  H(HETATM   15  H1  HET A   1)   1.11246219 +1  136.6705191 +1   39.5611163 +1     4     2     1
  H(HETATM   16  H2  HET A   1)   1.10456782 +1  143.6588306 +1 -122.4528531 +1     5     4     2
  H(HETATM   17 1H3  HET A   1)   1.10135730 +1  109.7215503 +1  120.3908744 +1     6     5     4
  H(HETATM   18 2H3  HET A   1)   1.09210929 +1  110.3722865 +1 -122.0717072 +1     6     5     4
  H(HETATM   19 1H4  HET A   1)   1.11126738 +1  106.8002385 +1   72.0250616 +1     7     2     1
  H(HETATM   20 2H4  HET A   1)   1.09860391 +1  108.4341656 +1  -42.8742166 +1     7     2     1
  H(HETATM   21 1H5  HET A   1)   1.09604413 +1  115.2739610 +1  -91.7990480 +1     8     3     2
  H(HETATM   22 2H5  HET A   1)   1.12214063 +1   98.0248744 +1  155.6721339 +1     8     3     2
  H(HETATM   23 1H6  HET A   1)   1.11325030 +1  103.0558209 +1 -150.6781985 +1     9     3     2
  H(HETATM   24 2H6  HET A   1)   1.10691640 +1  112.0164046 +1   94.3933294 +1     9     3     2
  H(HETATM   25  H11 HET A   1)   1.08067766 +1  121.5128261 +1 -179.4010014 +1    14    13    11
  H(HETATM   26  H8  HET A   1)   1.08252539 +1  119.8150187 +1  178.7734446 +1    11    10     2
  H(HETATM   27  H10 HET A   1)   1.08140974 +1  120.1837592 +1  179.6139581 +1    13    11    10
  H(HETATM   28 1H2  HET A   1)   1.09668507 +1   28.0160889 +1  -51.5742432 +1     3     2     1
  H(HETATM   29 2H2  HET A   1)   1.10690084 +1  122.7991418 +1  135.6432185 +1     3     2     1

 XPARAM 
  1  1   -0.0033  1  2   -0.0107  1  3   -0.0300  2  1    2.2977  2  2   -0.0098
  2  3    0.0023  3  1    3.4721  3  2    2.2864  3  3    0.0270  4  1    2.5484
  4  2    2.1137  4  3    1.0586  5  1    2.4705  5  2    1.0076  5  3    3.1257
  6  1    1.5049  6  2    0.5881  6  3    4.0014  7  1    1.4700  7  2    1.5465
  7  3    1.2066  8  1    1.6530  8  2    1.2237  8  3    1.1954  9  1    1.6323
  9  2    1.3021  9  3    3.5940 10  1    1.3579 10  2    2.6069 10  3    4.2047
 11  1    1.3733 11  2    2.1313 11  3    0.0517 12  1    1.1704 12  2    0.6066
 12  3    2.0205 13  1    1.3900 13  2    2.1390 13  3    6.2776 14  1    1.3196
 14  2    2.1085 14  3    0.0032 15  1    1.1125 15  2    2.3854 15  3    0.6905
 16  1    1.1046 16  2    2.5073 16  3    4.1460 17  1    1.1014 17  2    1.9150
 17  3    2.1012 18  1    1.0921 18  2    1.9264 18  3    4.1526 19  1    1.1113
 19  2    1.8640 19  3    1.2571 20  1    1.0986 20  2    1.8925 20  3    5.5349
 21  1    1.0960 21  2    2.0119 21  3    4.6810 22  1    1.1221 22  2    1.7109
 22  3    2.7170 23  1    1.1133 23  2    1.7987 23  3    3.6534 24  1    1.1069
 24  2    1.9551 24  3    1.6475 25  1    1.0807 25  2    2.1208 25  3    3.1520
 26  1    1.0825 26  2    2.0912 26  3    3.1202 27  1    1.0814 27  2    2.0976
 27  3    3.1349 28  1    1.0967 28  2    0.4890 28  3    5.3830 29  1    1.1069
 29  2    2.1432 29  3    2.3674
 grad
      -0.00000   -0.00000    0.00000   53.61036    0.00000    0.00000   67.95150 -174.95475
       0.00000 -100.11104  156.70014   57.08675  -41.79995 -307.25051 -108.67178   -9.54493
     -73.20758   19.35633   -9.17059   18.23446   -1.11391   -4.64037   40.77219  -51.34875
     -26.19788  103.81772   59.15728   77.48868  280.52839   -9.99640   84.22864  267.58638
       0.60398 -127.44840  -43.79393   -3.14537  -14.55284  233.61522    1.89618 -110.38591
     104.80477    1.15378  -10.70936    0.36475   -2.59021  -16.85596    3.86489    6.54199
     -14.43570    0.69031   -6.64868  -15.63828   -0.81150    9.63749   -7.97331   -3.89522
       2.09657  -12.33152   -0.30562   -3.40164    0.18931   15.10990   -8.28894    1.91425
     -17.58027   -4.32404    6.47541  -15.82089   -4.96633    6.05115    8.17247    6.88620
      -2.49334  -15.84737    0.06522   -7.54384   -0.11439   -1.06923  -14.45170    5.28320
      -0.79542   -5.69643  -48.82147   -6.99727    6.86678  -45.92696    2.41522
 CYCLE:     3 TIME:   0.016 TIME LEFT:  2.00D  GRAD.:   690.386 HEAT:  263.2801

          HESSIAN HAS  0 NEGATIVE EIGENVALUE(S)
  MIN SEARCH, CORRECT HESSIAN, TRYING PURE NR STEP
 LAMBDA THAT MINIMIZES ALONG ALL MODES =        0.000000000
 PURE NR-STEP HAS LENGTH   1.12918
 LAMBDA THAT MINIMIZES ALONG ALL MODES =     -276.163303905
 P-RFO-STEP   HAS LENGTH   0.60018
 LAMBDA THAT MINIMIZES ALONG ALL MODES =    -1756.616822140
 QA/TRIM-STEP HAS LENGTH   0.20000

  HEAT OF FORMATION        342.68717271630885    
 PARAMETERS       -0.019   0.006  -0.037   2.270  -0.021   0.003   3.453   2.345
   0.031   2.583   2.032   1.030   2.469   1.116   3.184   1.489   0.610   3.991

   1.469   1.539   1.205   1.656   1.202   1.220   1.639   1.254   3.565   1.346

   2.551   4.207   1.387   2.126   0.050   1.178   0.597   2.019   1.401   2.143

   6.275   1.335   2.114   0.000   1.118   2.386   0.691   1.110   2.507   4.142

   1.106   1.916   2.103   1.095   1.928   4.147   1.115   1.866   1.255   1.100

   1.893   5.536   1.094   2.006   4.684   1.122   1.721   2.718   1.110   1.808

   3.655   1.105   1.952   1.643   1.083   2.125   3.151   1.084   2.092   3.120

   1.085   2.097   3.134   1.096   0.513   5.386   1.109   2.166   2.365
 GRADIENT         -0.000  -0.000   0.000 -15.661   0.000   0.000-394.0861085.283
   0.000 166.772-354.139-414.423  -3.671 459.564 862.053 -13.016 -86.116 -27.576

   0.838  87.949  -1.909  31.388-187.968 201.632  73.515-372.240-272.401 -12.247

 -80.269   6.895 121.114 131.489  -0.787 -63.914 -77.741  -3.535  22.482 195.125

  -1.052 -52.701 113.527  -1.322 -13.899   5.721   0.819 -39.365  35.853 -31.587

 -10.213   1.712  -5.249 -13.442  -4.007  10.426  -8.152  -0.449   1.084 -21.246

   9.168 -13.839 -21.938  38.098  13.117  -6.112  -9.420 -10.621 -33.277   1.704

  44.899  -3.900   4.133   9.598   0.429 -17.150  -0.061  -4.492   2.728  -1.259

 -10.652   7.163  -0.844  -6.128 -61.226 -11.199  10.270 -59.004   5.605
       HoF         ACTUAL,  PREDICTED ENERGY CHANGE, RATIO
   342.6871727    79.4070794         -86.4051270   -0.9190089
 UNACCEPTABLE RATIO, REJECTING STEP, REDUCING DMAX TO 0.1000
  MIN SEARCH, CORRECT HESSIAN, TRYING PURE NR STEP
 LAMBDA THAT MINIMIZES ALONG ALL MODES =        0.000000000
 PURE NR-STEP HAS LENGTH   1.12918
 LAMBDA THAT MINIMIZES ALONG ALL MODES =     -276.163303905
 P-RFO-STEP   HAS LENGTH   0.60018
 LAMBDA THAT MINIMIZES ALONG ALL MODES =    -4135.684553945
 QA/TRIM-STEP HAS LENGTH   0.10000

  HEAT OF FORMATION        254.83207032624341    
 PARAMETERS       -0.012  -0.002  -0.033   2.282  -0.014   0.003   3.462   2.315
   0.029   2.567   2.075   1.045   2.470   1.063   3.152   1.497   0.601   3.997

   1.470   1.544   1.206   1.653   1.214   1.207   1.634   1.280   3.581   1.351

   2.577   4.205   1.378   2.123   0.051   1.177   0.604   2.020   1.395   2.137

   6.276   1.331   2.109   0.002   1.116   2.386   0.690   1.108   2.508   4.144

   1.104   1.916   2.102   1.094   1.927   4.150   1.113   1.865   1.256   1.100

   1.893   5.535   1.095   2.010   4.682   1.122   1.716   2.718   1.111   1.803

   3.654   1.106   1.954   1.646   1.082   2.123   3.152   1.084   2.092   3.120

   1.084   2.098   3.135   1.096   0.501   5.384   1.107   2.154   2.366
 GRADIENT         -0.000  -0.000   0.000  15.414   0.000   0.000 -81.204 247.750
   0.000 101.015-267.720 -78.419 -67.856 223.863 142.449  -9.083 -59.128   0.462

  -4.885  49.442  -1.207   1.448 -48.876  48.467  12.593 -40.602   7.983  -7.875

  -7.490   2.697  94.818 160.740   0.292 -85.489 -54.023  -3.390  -0.249 185.722

   0.253 -72.075  95.794  -0.322 -12.614   3.838  -1.510 -18.688   9.844 -14.192

 -11.773   0.951  -5.564 -13.436  -2.533   8.598  -8.103  -1.973   1.879 -16.224

   4.074  -8.229  -9.176  24.316   0.905  -2.200 -13.575  -7.336  -8.611  -7.426

  13.905   0.736   6.942   7.289  -2.408 -13.962   0.023  -5.477   1.954  -1.235

 -12.045   5.892  -0.828  -6.281 -54.940  -8.988   8.183 -51.218   3.437
       HoF         ACTUAL,  PREDICTED ENERGY CHANGE, RATIO
   254.8320703    -8.4480230         -48.3133614    0.1748589
     STEPSIZE USED IS  0.10000
 CALCULATED STEP
    -0.008521  0.008930 -0.002999 -0.015572 -0.004632  0.000617 -0.010189  0.029075
     0.001657  0.019009 -0.039203 -0.013412 -0.000091  0.055461  0.026672 -0.007908
     0.012805 -0.004880 -0.000173 -0.002954 -0.000638  0.000279 -0.009912  0.011318
     0.002148 -0.022059 -0.013261 -0.006734 -0.029449  0.000666  0.004488 -0.008220
    -0.000816  0.006646 -0.002289 -0.000551  0.005109 -0.002115 -0.001351  0.011240
     0.000288 -0.001413  0.003061  0.000538  0.000013  0.003009  0.000400 -0.002026
     0.002449  0.000664  0.000835  0.001878  0.001105 -0.002502  0.001743  0.001385
    -0.001015  0.000963  0.000924  0.000322 -0.000928 -0.002173  0.001434 -0.000537
     0.005100  0.000624 -0.001754  0.004586  0.000589 -0.000911 -0.001012 -0.001933
     0.001208  0.002577 -0.000517  0.001002  0.000941 -0.000247  0.002198 -0.000035
    -0.000309 -0.001029  0.011786  0.001204  0.000217  0.010995 -0.001061
     NEW TRUST RADIUS =  0.10000
*REMARK   3 HET = Not identified; C 11 H 15 N 2 O    =    29 atoms res:    1
 PM7 CHARGE=+1 EF NOXYZ PRNT=2 PDBOUT COMPFG GRAPHF
 (1R,9S)-7-aza-11-azoniatricyclo[7.3.1.02,7]trideca-2,4-dien-6-one

  O(HETATM    1  O   HET A   1)  -0.01178771 +1   -0.0017424 +1   -0.0330179 +1
  N(HETATM    2  N1  HET A   1)   2.28210892 +1   -0.8265793 +1    0.1659009 +1     1     0     0
  N(HETATM    3  N2  HET A   1)   3.46186518 +1  132.6641338 +1    1.6394995 +1     2     1     0
  C(HETATM    4  C1  HET A   1)   2.56741580 +1  118.8607798 +1   59.8823215 +1     2     1     3
  C(HETATM    5  C2  HET A   1)   2.47037416 +1   60.9081045 +1 -179.3829284 +1     4     2     1
  C(HETATM    6  C3  HET A   1)   1.49697376 +1   34.4274567 +1 -131.0145486 +1     5     4     2
  C(HETATM    7  C4  HET A   1)   1.46979520 +1   88.4373529 +1   69.0976255 +1     2     1     3
  C(HETATM    8  C5  HET A   1)   1.65325997 +1   69.5440279 +1   69.1418426 +1     3     2     1
  C(HETATM    9  C6  HET A   1)   1.63443586 +1   73.3386329 +1 -154.8379459 +1     3     2     1
  C(HETATM   10  C7  HET A   1)   1.35115095 +1  147.6760614 +1 -119.0482195 +1     2     1     3
  C(HETATM   11  C8  HET A   1)   1.37781030 +1  121.6442906 +1    2.9127080 +1    10     2     1
  C(HETATM   12  C9  HET A   1)   1.17700429 +1   34.6222995 +1  115.7350152 +1     1     2     3
  C(HETATM   13  C10 HET A   1)   1.39511135 +1  122.4360245 +1   -0.3980446 +1    11    10     2
  C(HETATM   14  C11 HET A   1)   1.33079063 +1  120.8270892 +1    0.1020653 +1    13    11    10
  H(HETATM   15  H1  HET A   1)   1.11552298 +1  136.7013400 +1   39.5618888 +1     4     2     1
  H(HETATM   16  H2  HET A   1)   1.10757633 +1  143.6817679 +1 -122.5689529 +1     5     4     2
  H(HETATM   17 1H3  HET A   1)   1.10380597 +1  109.7595817 +1  120.4387188 +1     6     5     4
  H(HETATM   18 2H3  HET A   1)   1.09398754 +1  110.4355857 +1 -122.2150639 +1     6     5     4
  H(HETATM   19 1H4  HET A   1)   1.11301087 +1  106.8796157 +1   71.9669020 +1     7     2     1
  H(HETATM   20 2H4  HET A   1)   1.09956648 +1  108.4871232 +1  -42.8557767 +1     7     2     1
  H(HETATM   21 1H5  HET A   1)   1.09511617 +1  115.1494289 +1  -91.7169052 +1     8     3     2
  H(HETATM   22 2H5  HET A   1)   1.12160385 +1   98.3170686 +1  155.7079004 +1     8     3     2
  H(HETATM   23 1H6  HET A   1)   1.11149607 +1  103.3185988 +1 -150.6444366 +1     9     3     2
  H(HETATM   24 2H6  HET A   1)   1.10600553 +1  111.9584012 +1   94.2825752 +1     9     3     2
  H(HETATM   25  H11 HET A   1)   1.08188532 +1  121.6604592 +1 -179.4306031 +1    14    13    11
  H(HETATM   26  H8  HET A   1)   1.08352693 +1  119.8689318 +1  178.7592699 +1    11    10     2
  H(HETATM   27  H10 HET A   1)   1.08360727 +1  120.1817769 +1  179.5962684 +1    13    11    10
  H(HETATM   28 1H2  HET A   1)   1.09565582 +1   28.6914021 +1  -51.5052591 +1     3     2     1
  H(HETATM   29 2H2  HET A   1)   1.10711812 +1  123.4290934 +1  135.5824301 +1     3     2     1

 XPARAM 
  1  1   -0.0118  1  2   -0.0017  1  3   -0.0330  2  1    2.2821  2  2   -0.0144
  2  3    0.0029  3  1    3.4619  3  2    2.3154  3  3    0.0286  4  1    2.5674
  4  2    2.0745  4  3    1.0451  5  1    2.4704  5  2    1.0630  5  3    3.1524
  6  1    1.4970  6  2    0.6009  6  3    3.9966  7  1    1.4698  7  2    1.5435
  7  3    1.2060  8  1    1.6533  8  2    1.2138  8  3    1.2068  9  1    1.6344
  9  2    1.2800  9  3    3.5808 10  1    1.3512 10  2    2.5774 10  3    4.2054
 11  1    1.3778 11  2    2.1231 11  3    0.0508 12  1    1.1770 12  2    0.6043
 12  3    2.0200 13  1    1.3951 13  2    2.1369 13  3    6.2762 14  1    1.3308
 14  2    2.1088 14  3    0.0018 15  1    1.1155 15  2    2.3859 15  3    0.6905
 16  1    1.1076 16  2    2.5077 16  3    4.1440 17  1    1.1038 17  2    1.9157
 17  3    2.1021 18  1    1.0940 18  2    1.9275 18  3    4.1501 19  1    1.1130
 19  2    1.8654 19  3    1.2561 20  1    1.0996 20  2    1.8935 20  3    5.5352
 21  1    1.0951 21  2    2.0097 21  3    4.6824 22  1    1.1216 22  2    1.7160
 22  3    2.7176 23  1    1.1115 23  2    1.8032 23  3    3.6539 24  1    1.1060
 24  2    1.9540 24  3    1.6455 25  1    1.0819 25  2    2.1234 25  3    3.1515
 26  1    1.0835 26  2    2.0921 26  3    3.1199 27  1    1.0836 27  2    2.0976
 27  3    3.1345 28  1    1.0957 28  2    0.5008 28  3    5.3842 29  1    1.1071
 29  2    2.1542 29  3    2.3664
 grad
      -0.00000   -0.00000    0.00000   15.41391    0.00000    0.00000  -81.20357  247.74960
       0.00000  101.01481 -267.71965  -78.41921  -67.85621  223.86308  142.44896   -9.08324
     -59.12799    0.46220   -4.88513   49.44161   -1.20672    1.44827  -48.87615   48.46740
      12.59297  -40.60174    7.98285   -7.87533   -7.48967    2.69688   94.81753  160.73962
       0.29216  -85.48873  -54.02256   -3.38996   -0.24907  185.72249    0.25319  -72.07543
      95.79406   -0.32238  -12.61427    3.83754   -1.51013  -18.68786    9.84390  -14.19210
     -11.77305    0.95056   -5.56388  -13.43642   -2.53342    8.59768   -8.10266   -1.97274
       1.87876  -16.22434    4.07357   -8.22945   -9.17558   24.31580    0.90528   -2.20022
     -13.57528   -7.33560   -8.61132   -7.42637   13.90475    0.73597    6.94232    7.28920
      -2.40753  -13.96156    0.02279   -5.47669    1.95372   -1.23516  -12.04536    5.89177
      -0.82821   -6.28085  -54.94017   -8.98764    8.18308  -51.21827    3.43697
 CYCLE:     4 TIME:   0.016 TIME LEFT:  2.00D  GRAD.:   589.272 HEAT:  254.8321

          HESSIAN HAS  0 NEGATIVE EIGENVALUE(S)
  MIN SEARCH, CORRECT HESSIAN, TRYING PURE NR STEP
 LAMBDA THAT MINIMIZES ALONG ALL MODES =        0.000000000
 PURE NR-STEP HAS LENGTH   0.41599
 LAMBDA THAT MINIMIZES ALONG ALL MODES =      -87.103215011
 P-RFO-STEP   HAS LENGTH   0.32913
 LAMBDA THAT MINIMIZES ALONG ALL MODES =    -1542.348596153
 QA/TRIM-STEP HAS LENGTH   0.10000

  HEAT OF FORMATION        236.84757990641810    
 PARAMETERS       -0.014  -0.002  -0.036   2.268  -0.012   0.006   3.463   2.291
   0.035   2.558   2.122   1.061   2.486   1.060   3.136   1.492   0.632   3.993

   1.468   1.527   1.208   1.649   1.220   1.205   1.629   1.270   3.566   1.342

   2.572   4.208   1.365   2.108   0.053   1.202   0.605   2.022   1.396   2.117

   6.278   1.352   2.099   0.003   1.120   2.385   0.692   1.112   2.505   4.148

   1.108   1.916   2.105   1.097   1.929   4.145   1.115   1.867   1.255   1.102

   1.893   5.539   1.094   1.999   4.684   1.120   1.726   2.722   1.110   1.810

   3.650   1.103   1.950   1.641   1.082   2.129   3.152   1.084   2.092   3.121

   1.087   2.095   3.135   1.095   0.530   5.389   1.102   2.182   2.365
 GRADIENT         -0.000  -0.000   0.000 -22.188   0.000   0.000   9.870 -68.461
   0.000  67.033  42.887  33.119  17.765 125.463 -24.046 -30.354  49.930   4.184

 -15.171 -49.111  -1.260   1.224  30.072 -46.651 -18.809   5.682  22.066-103.129

-141.406   2.826 -57.945-129.692  -2.887  24.439  12.465  -0.809 -40.478 -92.429

  -0.251  11.772 -27.935  -0.241  -2.146   3.813  -4.438  -8.207  -7.157  -5.249

  -5.408  -4.603   0.955  -7.267  -6.236   2.439  -3.666  -5.203  -0.410  -7.886

  -3.782   1.082  -2.104  13.694  -8.164  -0.577 -15.147  -5.782  -4.777  -7.598

   7.482  -2.267  11.173   2.599  -8.644  -4.510   0.230  -5.500  -1.100  -1.243

  -8.509   3.775  -0.707  -3.763 -54.832  -8.227   7.189 -53.798   1.720
       HoF         ACTUAL,  PREDICTED ENERGY CHANGE, RATIO
   236.8475799   -17.9844904         -29.9001723    0.6014845
     STEPSIZE USED IS  0.10000
 CALCULATED STEP
    -0.002477 -0.000489 -0.003419 -0.014219  0.002909  0.003027  0.001023 -0.024001
     0.006755 -0.009842  0.047620  0.016132  0.015519 -0.003466 -0.016694 -0.005283
     0.030718 -0.003674 -0.001989 -0.016579  0.002153 -0.003980  0.006020 -0.002002
    -0.005748 -0.010113 -0.014533 -0.009059 -0.005029  0.002517 -0.012959 -0.015528
     0.002339  0.025248  0.000791  0.001972  0.000749 -0.019517  0.001411  0.020849
    -0.009631  0.001339  0.003977 -0.000906  0.001189  0.004778 -0.002770  0.003551
     0.003798  0.000109  0.003319  0.003401  0.001534 -0.005068  0.002239  0.001710
    -0.001277  0.002879 -0.000852  0.003962 -0.000995 -0.010264  0.001971 -0.001882
     0.009780  0.003994 -0.001816  0.007153 -0.003809 -0.003044 -0.003575 -0.004070
     0.000574  0.005286  0.000061  0.000502  0.000050  0.000821  0.003403 -0.002139
     0.000610 -0.000501  0.029524  0.004910 -0.004875  0.027694 -0.001799
     NEW TRUST RADIUS =  0.14142
*REMARK   3 HET = Not identified; C 11 H 15 N 2 O    =    29 atoms res:    1
 PM7 CHARGE=+1 EF NOXYZ PRNT=2 PDBOUT COMPFG GRAPHF
 (1R,9S)-7-aza-11-azoniatricyclo[7.3.1.02,7]trideca-2,4-dien-6-one

  O(HETATM    1  O   HET A   1)  -0.01426440 +1   -0.0022318 +1   -0.0364370 +1
  N(HETATM    2  N1  HET A   1)   2.26789041 +1   -0.6599244 +1    0.3393291 +1     1     0     0
  N(HETATM    3  N2  HET A   1)   3.46288798 +1  131.2889801 +1    2.0265538 +1     2     1     0
  C(HETATM    4  C1  HET A   1)   2.55757400 +1  121.5891954 +1   60.8065888 +1     2     1     3
  C(HETATM    5  C2  HET A   1)   2.48589286 +1   60.7095040 +1  179.6605705 +1     4     2     1
  C(HETATM    6  C3  HET A   1)   1.49169062 +1   36.1874745 +1 -131.2250370 +1     5     4     2
  C(HETATM    7  C4  HET A   1)   1.46780644 +1   87.4874262 +1   69.2209583 +1     2     1     3
  C(HETATM    8  C5  HET A   1)   1.64927983 +1   69.8889732 +1   69.0271561 +1     3     2     1
  C(HETATM    9  C6  HET A   1)   1.62868819 +1   72.7591760 +1 -155.6706313 +1     3     2     1
  C(HETATM   10  C7  HET A   1)   1.34209218 +1  147.3879209 +1 -118.9040174 +1     2     1     3
  C(HETATM   11  C8  HET A   1)   1.36485113 +1  120.7545947 +1    3.0467414 +1    10     2     1
  C(HETATM   12  C9  HET A   1)   1.20225210 +1   34.6676145 +1  115.8480110 +1     1     2     3
  C(HETATM   13  C10 HET A   1)   1.39586013 +1  121.3177776 +1   -0.3171863 +1    11    10     2
  C(HETATM   14  C11 HET A   1)   1.35164011 +1  120.2752680 +1    0.1787669 +1    13    11    10
  H(HETATM   15  H1  HET A   1)   1.11950039 +1  136.6494561 +1   39.6299938 +1     4     2     1
  H(HETATM   16  H2  HET A   1)   1.11235407 +1  143.5230806 +1 -122.3655056 +1     5     4     2
  H(HETATM   17 1H3  HET A   1)   1.10760391 +1  109.7658489 +1  120.6288954 +1     6     5     4
  H(HETATM   18 2H3  HET A   1)   1.09738810 +1  110.5234584 +1 -122.5054420 +1     6     5     4
  H(HETATM   19 1H4  HET A   1)   1.11524964 +1  106.9775880 +1   71.8937429 +1     7     2     1
  H(HETATM   20 2H4  HET A   1)   1.10244530 +1  108.4383044 +1  -42.6287797 +1     7     2     1
  H(HETATM   21 1H5  HET A   1)   1.09412112 +1  114.5613408 +1  -91.6040019 +1     8     3     2
  H(HETATM   22 2H5  HET A   1)   1.11972154 +1   98.8774455 +1  155.9367241 +1     8     3     2
  H(HETATM   23 1H6  HET A   1)   1.10967967 +1  103.7284278 +1 -150.8626839 +1     9     3     2
  H(HETATM   24 2H6  HET A   1)   1.10296187 +1  111.7535523 +1   94.0494012 +1     9     3     2
  H(HETATM   25  H11 HET A   1)   1.08245960 +1  121.9633389 +1 -179.4271102 +1    14    13    11
  H(HETATM   26  H8  HET A   1)   1.08402909 +1  119.8717933 +1  178.8062949 +1    11    10     2
  H(HETATM   27  H10 HET A   1)   1.08701033 +1  120.0592203 +1  179.6312177 +1    13    11    10
  H(HETATM   28 1H2  HET A   1)   1.09515518 +1   30.3830074 +1  -51.2239602 +1     3     2     1
  H(HETATM   29 2H2  HET A   1)   1.10224337 +1  125.0158233 +1  135.4793623 +1     3     2     1

 XPARAM 
  1  1   -0.0143  1  2   -0.0022  1  3   -0.0364  2  1    2.2679  2  2   -0.0115
  2  3    0.0059  3  1    3.4629  3  2    2.2914  3  3    0.0354  4  1    2.5576
  4  2    2.1221  4  3    1.0613  5  1    2.4859  5  2    1.0596  5  3    3.1357
  6  1    1.4917  6  2    0.6316  6  3    3.9929  7  1    1.4678  7  2    1.5269
  7  3    1.2081  8  1    1.6493  8  2    1.2198  8  3    1.2048  9  1    1.6287
  9  2    1.2699  9  3    3.5662 10  1    1.3421 10  2    2.5724 10  3    4.2079
 11  1    1.3649 11  2    2.1076 11  3    0.0532 12  1    1.2023 12  2    0.6051
 12  3    2.0219 13  1    1.3959 13  2    2.1174 13  3    6.2776 14  1    1.3516
 14  2    2.0992 14  3    0.0031 15  1    1.1195 15  2    2.3850 15  3    0.6917
 16  1    1.1124 16  2    2.5050 16  3    4.1475 17  1    1.1076 17  2    1.9158
 17  3    2.1054 18  1    1.0974 18  2    1.9290 18  3    4.1451 19  1    1.1152
 19  2    1.8671 19  3    1.2548 20  1    1.1024 20  2    1.8926 20  3    5.5392
 21  1    1.0941 21  2    1.9995 21  3    4.6844 22  1    1.1197 22  2    1.7257
 22  3    2.7216 23  1    1.1097 23  2    1.8104 23  3    3.6501 24  1    1.1030
 24  2    1.9505 24  3    1.6415 25  1    1.0825 25  2    2.1287 25  3    3.1516
 26  1    1.0840 26  2    2.0922 26  3    3.1208 27  1    1.0870 27  2    2.0954
 27  3    3.1352 28  1    1.0952 28  2    0.5303 28  3    5.3892 29  1    1.1022
 29  2    2.1819 29  3    2.3646
 grad
      -0.00000   -0.00000    0.00000  -22.18833    0.00000    0.00000    9.87045  -68.46116
       0.00000   67.03256   42.88679   33.11942   17.76496  125.46335  -24.04586  -30.35414
      49.92951    4.18409  -15.17057  -49.11123   -1.26012    1.22428   30.07213  -46.65138
     -18.80934    5.68153   22.06602 -103.12921 -141.40552    2.82624  -57.94522 -129.69193
      -2.88738   24.43871   12.46497   -0.80859  -40.47829  -92.42917   -0.25134   11.77206
     -27.93492   -0.24096   -2.14550    3.81328   -4.43763   -8.20735   -7.15746   -5.24876
      -5.40782   -4.60264    0.95468   -7.26655   -6.23558    2.43929   -3.66577   -5.20270
      -0.40963   -7.88579   -3.78206    1.08206   -2.10430   13.69404   -8.16353   -0.57743
     -15.14712   -5.78241   -4.77661   -7.59794    7.48163   -2.26668   11.17283    2.59899
      -8.64439   -4.51000    0.23019   -5.49991   -1.09979   -1.24301   -8.50898    3.77529
      -0.70694   -3.76331  -54.83150   -8.22694    7.18881  -53.79755    1.72008
 CYCLE:     5 TIME:   0.016 TIME LEFT:  2.00D  GRAD.:   330.984 HEAT:  236.8476

          HESSIAN HAS  0 NEGATIVE EIGENVALUE(S)
  MIN SEARCH, CORRECT HESSIAN, TRYING PURE NR STEP
 LAMBDA THAT MINIMIZES ALONG ALL MODES =        0.000000000
 PURE NR-STEP HAS LENGTH   0.50096
 LAMBDA THAT MINIMIZES ALONG ALL MODES =      -66.853902240
 P-RFO-STEP   HAS LENGTH   0.39322
 LAMBDA THAT MINIMIZES ALONG ALL MODES =     -762.740532337
 QA/TRIM-STEP HAS LENGTH   0.14142

  HEAT OF FORMATION        253.06151258944737    
 PARAMETERS       -0.012  -0.007  -0.043   2.274  -0.010   0.012   3.461   2.320
   0.043   2.517   2.118   1.041   2.480   0.992   3.153   1.496   0.622   3.987

   1.471   1.549   1.208   1.648   1.205   1.242   1.629   1.266   3.540   1.362

   2.615   4.203   1.361   2.103   0.052   1.210   0.622   2.023   1.392   2.100

   6.275   1.363   2.077   0.000   1.122   2.382   0.695   1.115   2.509   4.151

   1.110   1.919   2.105   1.099   1.934   4.139   1.117   1.871   1.254   1.104

   1.896   5.539   1.092   1.987   4.691   1.118   1.740   2.727   1.109   1.819

   3.642   1.102   1.942   1.636   1.083   2.137   3.150   1.084   2.093   3.121

   1.090   2.092   3.135   1.095   0.579   5.398   1.096   2.228   2.361
 GRADIENT         -0.000  -0.000  -0.000   8.162   0.000   0.000-103.769 219.257
   0.000-203.106 318.711-194.710  23.181-606.682 163.342 -60.889 -16.581  -5.051

   2.333  30.487   3.687  32.798 -87.617  72.779   5.924 -35.738 -52.873  47.446

 192.614  -9.812-155.589-198.854  -4.251  48.867  87.240  -3.222 -87.965-234.608

  -2.850  38.141-123.768  -2.305 -13.587   6.333 -11.845 -34.158  13.089   0.388

  -5.822  -3.784  -1.403  -7.171  -6.430   5.236  -4.062  -2.732   0.573 -11.366

   1.673  -5.318 -13.972  21.078   2.181  -5.778 -10.642  -6.884  -1.138 -11.512

  -2.474 -10.912  16.011  -9.300 -15.735   8.369  -0.040  -5.806  -5.693  -1.073

  -5.270  -0.495  -0.818   1.177 -61.734  -9.798   6.386 -62.643   2.518
       HoF         ACTUAL,  PREDICTED ENERGY CHANGE, RATIO
   253.0615126    16.2139327         -22.5643378   -0.7185645
 UNACCEPTABLE RATIO, REJECTING STEP, REDUCING DMAX TO 0.0707
  MIN SEARCH, CORRECT HESSIAN, TRYING PURE NR STEP
 LAMBDA THAT MINIMIZES ALONG ALL MODES =        0.000000000
 PURE NR-STEP HAS LENGTH   0.50096
 LAMBDA THAT MINIMIZES ALONG ALL MODES =      -66.853902240
 P-RFO-STEP   HAS LENGTH   0.39322
 LAMBDA THAT MINIMIZES ALONG ALL MODES =    -2046.706247213
 QA/TRIM-STEP HAS LENGTH   0.07071

  HEAT OF FORMATION        230.17474751343252    
 PARAMETERS       -0.012  -0.005  -0.039   2.273  -0.011   0.008   3.461   2.307
   0.039   2.535   2.117   1.053   2.481   1.024   3.143   1.495   0.624   3.991

   1.470   1.539   1.208   1.648   1.212   1.221   1.628   1.268   3.555   1.355

   2.596   4.206   1.366   2.110   0.053   1.204   0.611   2.022   1.393   2.113

   6.276   1.357   2.090   0.002   1.120   2.383   0.693   1.113   2.507   4.149

   1.109   1.917   2.105   1.098   1.931   4.143   1.116   1.869   1.254   1.103

   1.894   5.539   1.093   1.994   4.687   1.119   1.732   2.724   1.109   1.814

   3.647   1.102   1.946   1.639   1.083   2.132   3.151   1.084   2.092   3.121

   1.088   2.094   3.135   1.095   0.552   5.393   1.099   2.203   2.363
 GRADIENT         -0.000  -0.000  -0.000   1.970   0.000   0.000 -37.495  70.111
   0.000 -37.691 117.337 -58.415  10.331-139.776  68.089 -41.823  10.315   1.183

  -5.885  -5.033   0.401  11.304 -17.388   5.449  -6.484 -12.485 -13.018 -20.262

  39.229  -3.687 -52.939 -54.322  -2.007   7.946  17.881  -2.201 -47.753 -57.824

  -0.688   3.202 -27.208  -0.778  -7.920   4.016  -7.594 -20.315   3.294  -3.025

  -5.988  -3.773  -0.702  -7.550  -5.715   4.142  -4.326  -3.683   0.519  -9.957

  -0.812  -2.382  -7.618  17.167  -3.343  -3.158 -13.271  -6.322  -3.155  -9.673

   2.550  -6.282  13.285  -2.740  -9.443  -0.652   0.132  -5.539  -2.574  -1.153

  -6.898   1.620  -0.753  -2.087 -58.460  -9.022   6.393 -57.780   2.124
       HoF         ACTUAL,  PREDICTED ENERGY CHANGE, RATIO
   230.1747475    -6.6728324         -13.7301202    0.4859996
     STEPSIZE USED IS  0.07071
 CALCULATED STEP
     0.002109 -0.003248 -0.003041  0.005229  0.000115  0.002375 -0.001573  0.015695
     0.003462 -0.022511 -0.004653 -0.008598 -0.004907 -0.035538  0.007487  0.003106
    -0.007850 -0.002230  0.002208  0.011792 -0.000013 -0.001655 -0.008108  0.016192
    -0.000358 -0.001954 -0.010926  0.013393  0.024023 -0.002139  0.000701  0.002434
    -0.000468  0.001630  0.006231  0.000170 -0.002568 -0.004839 -0.001246  0.004952
    -0.009450 -0.001209  0.000692 -0.001668  0.001252  0.001106  0.001720  0.001701
     0.001123  0.001253 -0.000137  0.000766  0.002294 -0.002211  0.000735  0.001677
    -0.000432  0.000348  0.001443 -0.000291 -0.001413 -0.005710  0.002696 -0.001141
     0.005891  0.002169 -0.000317  0.003341 -0.003496 -0.000545 -0.004271 -0.002029
     0.000212  0.003298 -0.000580  0.000103  0.000265  0.000052  0.001353 -0.001644
    -0.000169 -0.000584  0.021768  0.003473 -0.003728  0.020699 -0.001352
     NEW TRUST RADIUS =  0.07071
*REMARK   3 HET = Not identified; C 11 H 15 N 2 O    =    29 atoms res:    1
 PM7 CHARGE=+1 EF NOXYZ PRNT=2 PDBOUT COMPFG GRAPHF
 (1R,9S)-7-aza-11-azoniatricyclo[7.3.1.02,7]trideca-2,4-dien-6-one

  O(HETATM    1  O   HET A   1)  -0.01215574 +1   -0.0054796 +1   -0.0394782 +1
  N(HETATM    2  N1  HET A   1)   2.27311939 +1   -0.6533106 +1    0.4754059 +1     1     0     0
  N(HETATM    3  N2  HET A   1)   3.46131453 +1  132.1882332 +1    2.2249234 +1     2     1     0
  C(HETATM    4  C1  HET A   1)   2.53506306 +1  121.3226117 +1   60.3139314 +1     2     1     3
  C(HETATM    5  C2  HET A   1)   2.48098618 +1   58.6733246 +1 -179.9104833 +1     4     2     1
  C(HETATM    6  C3  HET A   1)   1.49479680 +1   35.7377052 +1 -131.3527792 +1     5     4     2
  C(HETATM    7  C4  HET A   1)   1.47001403 +1   88.1630503 +1   69.2201900 +1     2     1     3
  C(HETATM    8  C5  HET A   1)   1.64762465 +1   69.4244242 +1   69.9548852 +1     3     2     1
  C(HETATM    9  C6  HET A   1)   1.62833032 +1   72.6471935 +1 -156.2966301 +1     3     2     1
  C(HETATM   10  C7  HET A   1)   1.35548548 +1  148.7643420 +1 -119.0265787 +1     2     1     3
  C(HETATM   11  C8  HET A   1)   1.36555236 +1  120.8940714 +1    3.0199391 +1    10     2     1
  C(HETATM   12  C9  HET A   1)   1.20388246 +1   35.0246040 +1  115.8577248 +1     1     2     3
  C(HETATM   13  C10 HET A   1)   1.39329213 +1  121.0405317 +1   -0.3885550 +1    11    10     2
  C(HETATM   14  C11 HET A   1)   1.35659250 +1  119.7338119 +1    0.1094851 +1    13    11    10
  H(HETATM   15  H1  HET A   1)   1.12019252 +1  136.5538771 +1   39.7017150 +1     4     2     1
  H(HETATM   16  H2  HET A   1)   1.11346026 +1  143.6216351 +1 -122.2680192 +1     5     4     2
  H(HETATM   17 1H3  HET A   1)   1.10872665 +1  109.8376654 +1  120.6210621 +1     6     5     4
  H(HETATM   18 2H3  HET A   1)   1.09815459 +1  110.6548960 +1 -122.6321448 +1     6     5     4
  H(HETATM   19 1H4  HET A   1)   1.11598436 +1  107.0736929 +1   71.8689744 +1     7     2     1
  H(HETATM   20 2H4  HET A   1)   1.10279352 +1  108.5209723 +1  -42.6454771 +1     7     2     1
  H(HETATM   21 1H5  HET A   1)   1.09270837 +1  114.2341539 +1  -91.4495083 +1     8     3     2
  H(HETATM   22 2H5  HET A   1)   1.11858072 +1   99.2149555 +1  156.0609864 +1     8     3     2
  H(HETATM   23 1H6  HET A   1)   1.10936255 +1  103.9198676 +1 -151.0629725 +1     9     3     2
  H(HETATM   24 2H6  HET A   1)   1.10241669 +1  111.5088502 +1   93.9331664 +1     9     3     2
  H(HETATM   25  H11 HET A   1)   1.08267113 +1  122.1523271 +1 -179.4603137 +1    14    13    11
  H(HETATM   26  H8  HET A   1)   1.08413166 +1  119.8869621 +1  178.8092495 +1    11    10     2
  H(HETATM   27  H10 HET A   1)   1.08836373 +1  119.9650541 +1  179.6215414 +1    13    11    10
  H(HETATM   28 1H2  HET A   1)   1.09457145 +1   31.6302132 +1  -51.0249823 +1     3     2     1
  H(HETATM   29 2H2  HET A   1)   1.09851508 +1  126.2017887 +1  135.4019268 +1     3     2     1

 XPARAM 
  1  1   -0.0122  1  2   -0.0055  1  3   -0.0395  2  1    2.2731  2  2   -0.0114
  2  3    0.0083  3  1    3.4613  3  2    2.3071  3  3    0.0388  4  1    2.5351
  4  2    2.1175  4  3    1.0527  5  1    2.4810  5  2    1.0240  5  3    3.1432
  6  1    1.4948  6  2    0.6237  6  3    3.9906  7  1    1.4700  7  2    1.5387
  7  3    1.2081  8  1    1.6476  8  2    1.2117  8  3    1.2209  9  1    1.6283
  9  2    1.2679  9  3    3.5553 10  1    1.3555 10  2    2.5964 10  3    4.2058
 11  1    1.3656 11  2    2.1100 11  3    0.0527 12  1    1.2039 12  2    0.6113
 12  3    2.0221 13  1    1.3933 13  2    2.1126 13  3    6.2764 14  1    1.3566
 14  2    2.0897 14  3    0.0019 15  1    1.1202 15  2    2.3833 15  3    0.6929
 16  1    1.1135 16  2    2.5067 16  3    4.1492 17  1    1.1087 17  2    1.9170
 17  3    2.1052 18  1    1.0982 18  2    1.9313 18  3    4.1429 19  1    1.1160
 19  2    1.8688 19  3    1.2544 20  1    1.1028 20  2    1.8940 20  3    5.5389
 21  1    1.0927 21  2    1.9938 21  3    4.6871 22  1    1.1186 22  2    1.7316
 22  3    2.7238 23  1    1.1094 23  2    1.8137 23  3    3.6466 24  1    1.1024
 24  2    1.9462 24  3    1.6394 25  1    1.0827 25  2    2.1320 25  3    3.1510
 26  1    1.0841 26  2    2.0924 26  3    3.1208 27  1    1.0884 27  2    2.0938
 27  3    3.1350 28  1    1.0946 28  2    0.5521 28  3    5.3926 29  1    1.0985
 29  2    2.2026 29  3    2.3632
 grad
      -0.00000   -0.00000   -0.00000    1.97015    0.00000    0.00000  -37.49463   70.11149
       0.00000  -37.69093  117.33661  -58.41505   10.33116 -139.77584   68.08897  -41.82324
      10.31504    1.18276   -5.88484   -5.03267    0.40141   11.30391  -17.38828    5.44885
      -6.48405  -12.48507  -13.01806  -20.26176   39.22921   -3.68710  -52.93950  -54.32207
      -2.00669    7.94633   17.88127   -2.20136  -47.75257  -57.82384   -0.68817    3.20197
     -27.20822   -0.77797   -7.91969    4.01588   -7.59423  -20.31460    3.29357   -3.02533
      -5.98818   -3.77324   -0.70243   -7.54976   -5.71450    4.14165   -4.32560   -3.68313
       0.51914   -9.95701   -0.81235   -2.38156   -7.61807   17.16696   -3.34258   -3.15827
     -13.27138   -6.32220   -3.15495   -9.67307    2.55015   -6.28195   13.28488   -2.73999
      -9.44256   -0.65226    0.13246   -5.53922   -2.57393   -1.15316   -6.89825    1.61986
      -0.75262   -2.08660  -58.46026   -9.02236    6.39266  -57.78005    2.12402
 CYCLE:     6 TIME:   0.023 TIME LEFT:  2.00D  GRAD.:   274.388 HEAT:  230.1747

          HESSIAN HAS  0 NEGATIVE EIGENVALUE(S)
  MIN SEARCH, CORRECT HESSIAN, TRYING PURE NR STEP
 LAMBDA THAT MINIMIZES ALONG ALL MODES =        0.000000000
 PURE NR-STEP HAS LENGTH   0.55270
 LAMBDA THAT MINIMIZES ALONG ALL MODES =      -62.468662661
 P-RFO-STEP   HAS LENGTH   0.42688
 LAMBDA THAT MINIMIZES ALONG ALL MODES =    -1807.994198459
 QA/TRIM-STEP HAS LENGTH   0.07071

  HEAT OF FORMATION        227.24128471306904    
 PARAMETERS       -0.008  -0.015  -0.044   2.280  -0.007   0.007   3.464   2.299
   0.043   2.523   2.091   1.073   2.472   1.039   3.117   1.506   0.610   3.988

   1.469   1.545   1.208   1.642   1.214   1.223   1.626   1.270   3.556   1.361

   2.596   4.208   1.374   2.128   0.054   1.200   0.606   2.021   1.395   2.119

   6.277   1.351   2.093   0.003   1.120   2.381   0.696   1.116   2.504   4.152

   1.109   1.917   2.106   1.098   1.932   4.141   1.116   1.870   1.254   1.103

   1.892   5.540   1.092   1.984   4.689   1.117   1.736   2.727   1.109   1.816

   3.644   1.102   1.939   1.640   1.083   2.132   3.151   1.084   2.092   3.121

   1.089   2.091   3.135   1.094   0.576   5.397   1.093   2.227   2.362
 GRADIENT         -0.000  -0.000   0.000  19.353   0.000   0.000  31.221 -60.816
   0.000 -22.749 -90.021  66.300 -33.083 -12.270 -55.147  -8.749 -26.104  10.511

   5.107  66.294 -14.733  -7.279  26.863 -25.604 -13.979  39.836  46.687  13.555

  72.042   1.516  50.352 130.677   0.134 -38.676 -32.596  -1.500 -15.669 124.275

   1.964 -36.558  56.414   1.139  -7.459  -4.106   0.511  -8.751   0.809  -2.087

  -6.884  -0.294  -2.951  -8.568  -2.203   5.106  -9.297   0.648   6.170 -13.273

   2.279  -5.685  -6.056  15.751  -3.992   0.125 -15.180  -1.722  -1.836  -9.949

   2.367  -0.688   7.522   4.414  -3.821  -6.469   0.042  -5.241  -0.653  -1.365

  -6.714   1.667  -0.726  -0.645 -57.747  -8.691   5.270 -59.656   1.956
       HoF         ACTUAL,  PREDICTED ENERGY CHANGE, RATIO
   227.2412847    -2.9334628         -11.9528878    0.2454188
     STEPSIZE USED IS  0.07071
 CALCULATED STEP
     0.004310 -0.009564 -0.004713  0.006956  0.004535 -0.001267  0.002620 -0.008330
     0.003731 -0.012034 -0.026708  0.020540 -0.008978  0.014706 -0.025849  0.010981
    -0.013407 -0.002231 -0.001102  0.006077 -0.000062 -0.006005  0.001871  0.002142
    -0.002201  0.001815  0.000788  0.005428 -0.000685  0.001799  0.008047  0.018443
     0.001430 -0.004031 -0.005488 -0.000692  0.001760  0.006540  0.000721 -0.005600
     0.003161  0.000725 -0.000027 -0.002705  0.003402  0.002643 -0.002179  0.002620
     0.000113  0.000443  0.000301  0.000097  0.000673 -0.002086 -0.000214  0.000886
    -0.000201  0.000447 -0.001738  0.000918 -0.000808 -0.009896  0.002193 -0.001201
     0.004815  0.003130 -0.000771  0.002152 -0.002603 -0.000134 -0.006904  0.000253
     0.000332 -0.000116 -0.000026 -0.000623 -0.000867  0.000644  0.000200 -0.002919
     0.000419 -0.000191  0.024113  0.003998 -0.005310  0.024662 -0.000986
     NEW TRUST RADIUS =  0.07071
*REMARK   3 HET = Not identified; C 11 H 15 N 2 O    =    29 atoms res:    1
 PM7 CHARGE=+1 EF NOXYZ PRNT=2 PDBOUT COMPFG GRAPHF
 (1R,9S)-7-aza-11-azoniatricyclo[7.3.1.02,7]trideca-2,4-dien-6-one

  O(HETATM    1  O   HET A   1)  -0.00784585 +1   -0.0150431 +1   -0.0441911 +1
  N(HETATM    2  N1  HET A   1)   2.28007527 +1   -0.3934684 +1    0.4027964 +1     1     0     0
  N(HETATM    3  N2  HET A   1)   3.46393437 +1  131.7109457 +1    2.4386760 +1     2     1     0
  C(HETATM    4  C1  HET A   1)   2.52302861 +1  119.7923632 +1   61.4907798 +1     2     1     3
  C(HETATM    5  C2  HET A   1)   2.47200823 +1   59.5159048 +1  178.6084689 +1     4     2     1
  C(HETATM    6  C3  HET A   1)   1.50577743 +1   34.9695222 +1 -131.4806142 +1     5     4     2
  C(HETATM    7  C4  HET A   1)   1.46891203 +1   88.5112551 +1   69.2166223 +1     2     1     3
  C(HETATM    8  C5  HET A   1)   1.64162000 +1   69.5316179 +1   70.0775842 +1     3     2     1
  C(HETATM    9  C6  HET A   1)   1.62612886 +1   72.7511789 +1 -156.2514655 +1     3     2     1
  C(HETATM   10  C7  HET A   1)   1.36091342 +1  148.7251025 +1 -118.9234814 +1     2     1     3
  C(HETATM   11  C8  HET A   1)   1.37359918 +1  121.9507602 +1    3.1018860 +1    10     2     1
  C(HETATM   12  C9  HET A   1)   1.19985099 +1   34.7101627 +1  115.8180481 +1     1     2     3
  C(HETATM   13  C10 HET A   1)   1.39505182 +1  121.4152185 +1   -0.3472479 +1    11    10     2
  C(HETATM   14  C11 HET A   1)   1.35099288 +1  119.9149475 +1    0.1510191 +1    13    11    10
  H(HETATM   15  H1  HET A   1)   1.12016568 +1  136.3988642 +1   39.8966116 +1     4     2     1
  H(HETATM   16  H2  HET A   1)   1.11610278 +1  143.4967689 +1 -122.1178797 +1     5     4     2
  H(HETATM   17 1H3  HET A   1)   1.10883955 +1  109.8630371 +1  120.6383258 +1     6     5     4
  H(HETATM   18 2H3  HET A   1)   1.09825190 +1  110.6934536 +1 -122.7516504 +1     6     5     4
  H(HETATM   19 1H4  HET A   1)   1.11577003 +1  107.1244808 +1   71.8574717 +1     7     2     1
  H(HETATM   20 2H4  HET A   1)   1.10324099 +1  108.4213788 +1  -42.5928993 +1     7     2     1
  H(HETATM   21 1H5  HET A   1)   1.09190048 +1  113.6671423 +1  -91.3238550 +1     8     3     2
  H(HETATM   22 2H5  HET A   1)   1.11737981 +1   99.4908426 +1  156.2403099 +1     8     3     2
  H(HETATM   23 1H6  HET A   1)   1.10859110 +1  104.0431395 +1 -151.2121109 +1     9     3     2
  H(HETATM   24 2H6  HET A   1)   1.10228245 +1  111.1132839 +1   93.9476490 +1     9     3     2
  H(HETATM   25  H11 HET A   1)   1.08300270 +1  122.1456725 +1 -179.4618212 +1    14    13    11
  H(HETATM   26  H8  HET A   1)   1.08350828 +1  119.8372709 +1  178.8461465 +1    11    10     2
  H(HETATM   27  H10 HET A   1)   1.08856357 +1  119.7977977 +1  179.6455325 +1    13    11    10
  H(HETATM   28 1H2  HET A   1)   1.09438017 +1   33.0117912 +1  -50.7959187 +1     3     2     1
  H(HETATM   29 2H2  HET A   1)   1.09320490 +1  127.6148340 +1  135.3454482 +1     3     2     1

 XPARAM 
  1  1   -0.0078  1  2   -0.0150  1  3   -0.0442  2  1    2.2801  2  2   -0.0069
  2  3    0.0070  3  1    3.4639  3  2    2.2988  3  3    0.0426  4  1    2.5230
  4  2    2.0908  4  3    1.0732  5  1    2.4720  5  2    1.0387  5  3    3.1173
  6  1    1.5058  6  2    0.6103  6  3    3.9884  7  1    1.4689  7  2    1.5448
  7  3    1.2081  8  1    1.6416  8  2    1.2136  8  3    1.2231  9  1    1.6261
  9  2    1.2697  9  3    3.5561 10  1    1.3609 10  2    2.5957 10  3    4.2076
 11  1    1.3736 11  2    2.1284 11  3    0.0541 12  1    1.1999 12  2    0.6058
 12  3    2.0214 13  1    1.3951 13  2    2.1191 13  3    6.2771 14  1    1.3510
 14  2    2.0929 14  3    0.0026 15  1    1.1202 15  2    2.3806 15  3    0.6963
 16  1    1.1161 16  2    2.5045 16  3    4.1518 17  1    1.1088 17  2    1.9175
 17  3    2.1055 18  1    1.0983 18  2    1.9320 18  3    4.1408 19  1    1.1158
 19  2    1.8697 19  3    1.2541 20  1    1.1032 20  2    1.8923 20  3    5.5398
 21  1    1.0919 21  2    1.9839 21  3    4.6893 22  1    1.1174 22  2    1.7364
 22  3    2.7269 23  1    1.1086 23  2    1.8159 23  3    3.6440 24  1    1.1023
 24  2    1.9393 24  3    1.6397 25  1    1.0830 25  2    2.1318 25  3    3.1510
 26  1    1.0835 26  2    2.0916 26  3    3.1215 27  1    1.0886 27  2    2.0909
 27  3    3.1354 28  1    1.0944 28  2    0.5762 28  3    5.3966 29  1    1.0932
 29  2    2.2273 29  3    2.3622
 grad
      -0.00000   -0.00000    0.00000   19.35277    0.00000    0.00000   31.22111  -60.81618
       0.00000  -22.74857  -90.02068   66.29982  -33.08269  -12.26992  -55.14670   -8.74944
     -26.10370   10.51062    5.10747   66.29392  -14.73286   -7.27894   26.86341  -25.60414
     -13.97947   39.83641   46.68674   13.55470   72.04234    1.51596   50.35244  130.67665
       0.13440  -38.67627  -32.59571   -1.49987  -15.66942  124.27547    1.96370  -36.55801
      56.41408    1.13940   -7.45899   -4.10632    0.51122   -8.75065    0.80909   -2.08674
      -6.88395   -0.29381   -2.95057   -8.56830   -2.20269    5.10609   -9.29707    0.64816
       6.17042  -13.27343    2.27918   -5.68523   -6.05634   15.75138   -3.99246    0.12511
     -15.18012   -1.72193   -1.83554   -9.94858    2.36739   -0.68848    7.52165    4.41410
      -3.82148   -6.46916    0.04181   -5.24069   -0.65294   -1.36541   -6.71365    1.66689
      -0.72607   -0.64475  -57.74688   -8.69097    5.26979  -59.65565    1.95564
 CYCLE:     7 TIME:   0.008 TIME LEFT:  2.00D  GRAD.:   299.199 HEAT:  227.2413

          HESSIAN HAS  0 NEGATIVE EIGENVALUE(S)
  MIN SEARCH, CORRECT HESSIAN, TRYING PURE NR STEP
 LAMBDA THAT MINIMIZES ALONG ALL MODES =        0.000000000
 PURE NR-STEP HAS LENGTH   0.38636
 LAMBDA THAT MINIMIZES ALONG ALL MODES =      -36.709391110
 P-RFO-STEP   HAS LENGTH   0.32653
 LAMBDA THAT MINIMIZES ALONG ALL MODES =    -1154.426379248
 QA/TRIM-STEP HAS LENGTH   0.07071

  HEAT OF FORMATION        218.17673613543593    
 PARAMETERS       -0.010  -0.014  -0.050   2.275  -0.006   0.009   3.463   2.299
   0.050   2.529   2.105   1.064   2.472   1.052   3.122   1.507   0.612   3.984

   1.465   1.524   1.215   1.641   1.209   1.234   1.626   1.261   3.541   1.357

   2.586   4.207   1.375   2.124   0.055   1.199   0.609   2.022   1.399   2.112

   6.277   1.353   2.091   0.003   1.123   2.381   0.698   1.120   2.504   4.154

   1.111   1.919   2.106   1.100   1.934   4.137   1.119   1.871   1.251   1.106

   1.891   5.543   1.092   1.974   4.692   1.117   1.746   2.730   1.108   1.822

   3.641   1.103   1.933   1.638   1.084   2.134   3.151   1.084   2.092   3.122

   1.090   2.090   3.136   1.093   0.613   5.403   1.091   2.265   2.360
 GRADIENT         -0.000  -0.000   0.000   6.499   0.000   0.000  -7.739   5.222
   0.000  32.333 -14.595 -13.818 -15.824  67.931  -7.304  -9.822 -15.968   2.303

  -9.662 -13.064   1.112   6.502   2.417  -5.209  -7.314   0.081  19.100 -22.457

 -13.049   3.164  17.159  32.998  -1.106 -21.935 -14.398  -1.061 -22.084  37.516

   1.127 -16.105  17.987   0.555  -6.135   2.178  -1.330  -5.555  -0.968  -4.298

  -5.412  -0.550  -1.989  -7.282  -2.335   4.351  -3.230  -3.817   0.370  -8.363

  -1.976  -1.000  -7.567  15.273  -3.245  -2.106 -12.448  -3.746  -4.656  -6.795

   5.025  -3.239   9.313   1.742  -5.532  -3.359   0.065  -4.049  -0.983  -1.275

  -5.630   1.703  -0.710   2.195 -60.374  -8.766   6.533 -64.168   1.681
       HoF         ACTUAL,  PREDICTED ENERGY CHANGE, RATIO
   218.1767361    -9.0645486          -9.5410020    0.9500625
     STEPSIZE USED IS  0.07071
 CALCULATED STEP
    -0.001921  0.001260 -0.005591 -0.005446  0.000453  0.002428 -0.001019  0.000693
     0.007112  0.005916  0.014124 -0.009580 -0.000360  0.013145  0.004953  0.000953
     0.002116 -0.004268 -0.003669 -0.020499  0.006650 -0.000715 -0.004814  0.011052
    -0.000255 -0.008407 -0.015271 -0.004002 -0.009344 -0.000338  0.001670 -0.004899
     0.001009 -0.000855  0.002812  0.000260  0.003765 -0.007359 -0.000289  0.002384
    -0.002314 -0.000131  0.003323  0.000501  0.001734  0.003998 -0.000727  0.002474
     0.001792  0.001226  0.000904  0.001339  0.002288 -0.003458  0.002807  0.000836
    -0.003019  0.002543 -0.000874  0.002798  0.000550 -0.010297  0.002653 -0.000529
     0.009783  0.002666 -0.000438  0.006315 -0.003161  0.000550 -0.005949 -0.001486
     0.001337  0.001763 -0.000319  0.000544  0.000796  0.000723  0.001203 -0.000925
     0.000310 -0.001331  0.036560  0.006231 -0.002615  0.037235 -0.001784
     NEW TRUST RADIUS =  0.14142
*REMARK   3 HET = Not identified; C 11 H 15 N 2 O    =    29 atoms res:    1
 PM7 CHARGE=+1 EF NOXYZ PRNT=2 PDBOUT COMPFG GRAPHF
 (1R,9S)-7-aza-11-azoniatricyclo[7.3.1.02,7]trideca-2,4-dien-6-one

  O(HETATM    1  O   HET A   1)  -0.00976717 +1   -0.0137835 +1   -0.0497816 +1
  N(HETATM    2  N1  HET A   1)   2.27462922 +1   -0.3675294 +1    0.5418860 +1     1     0     0
  N(HETATM    3  N2  HET A   1)   3.46291541 +1  131.7506516 +1    2.8461381 +1     2     1     0
  C(HETATM    4  C1  HET A   1)   2.52894423 +1  120.6016217 +1   60.9419118 +1     2     1     3
  C(HETATM    5  C2  HET A   1)   2.47164813 +1   60.2690369 +1  178.8922712 +1     4     2     1
  C(HETATM    6  C3  HET A   1)   1.50673090 +1   35.0907822 +1 -131.7251805 +1     5     4     2
  C(HETATM    7  C4  HET A   1)   1.46524289 +1   87.3367424 +1   69.5976161 +1     2     1     3
  C(HETATM    8  C5  HET A   1)   1.64090514 +1   69.2558064 +1   70.7108416 +1     3     2     1
  C(HETATM    9  C6  HET A   1)   1.62587391 +1   72.2694676 +1 -157.1264420 +1     3     2     1
  C(HETATM   10  C7  HET A   1)   1.35691134 +1  148.1897073 +1 -118.9428376 +1     2     1     3
  C(HETATM   11  C8  HET A   1)   1.37526875 +1  121.6700447 +1    3.1596949 +1    10     2     1
  C(HETATM   12  C9  HET A   1)   1.19899613 +1   34.8712779 +1  115.8329365 +1     1     2     3
  C(HETATM   13  C10 HET A   1)   1.39881689 +1  120.9935721 +1   -0.3638269 +1    11    10     2
  C(HETATM   14  C11 HET A   1)   1.35337731 +1  119.7823862 +1    0.1434917 +1    13    11    10
  H(HETATM   15  H1  HET A   1)   1.12348881 +1  136.4275874 +1   39.9959523 +1     4     2     1
  H(HETATM   16  H2  HET A   1)   1.12010092 +1  143.4551244 +1 -121.9761086 +1     5     4     2
  H(HETATM   17 1H3  HET A   1)   1.11063153 +1  109.9332625 +1  120.6901408 +1     6     5     4
  H(HETATM   18 2H3  HET A   1)   1.09959102 +1  110.8245305 +1 -122.9498015 +1     6     5     4
  H(HETATM   19 1H4  HET A   1)   1.11857713 +1  107.1723835 +1   71.6845170 +1     7     2     1
  H(HETATM   20 2H4  HET A   1)   1.10578428 +1  108.3712841 +1  -42.4325834 +1     7     2     1
  H(HETATM   21 1H5  HET A   1)   1.09245070 +1  113.0771596 +1  -91.1718706 +1     8     3     2
  H(HETATM   22 2H5  HET A   1)   1.11685088 +1  100.0513722 +1  156.3930527 +1     8     3     2
  H(HETATM   23 1H6  HET A   1)   1.10815339 +1  104.4049889 +1 -151.3932226 +1     9     3     2
  H(HETATM   24 2H6  HET A   1)   1.10283289 +1  110.7724273 +1   93.8625333 +1     9     3     2
  H(HETATM   25  H11 HET A   1)   1.08433989 +1  122.2466663 +1 -179.4801214 +1    14    13    11
  H(HETATM   26  H8  HET A   1)   1.08405238 +1  119.8828731 +1  178.8875734 +1    11    10     2
  H(HETATM   27  H10 HET A   1)   1.08976674 +1  119.7447890 +1  179.6633028 +1    13    11    10
  H(HETATM   28 1H2  HET A   1)   1.09304883 +1   35.1065282 +1  -50.4388932 +1     3     2     1
  H(HETATM   29 2H2  HET A   1)   1.09058954 +1  129.7482240 +1  135.2432083 +1     3     2     1

 XPARAM 
  1  1   -0.0098  1  2   -0.0138  1  3   -0.0498  2  1    2.2746  2  2   -0.0064
  2  3    0.0095  3  1    3.4629  3  2    2.2995  3  3    0.0497  4  1    2.5289
  4  2    2.1049  4  3    1.0636  5  1    2.4716  5  2    1.0519  5  3    3.1223
  6  1    1.5067  6  2    0.6124  6  3    3.9841  7  1    1.4652  7  2    1.5243
  7  3    1.2147  8  1    1.6409  8  2    1.2087  8  3    1.2341  9  1    1.6259
  9  2    1.2613  9  3    3.5408 10  1    1.3569 10  2    2.5864 10  3    4.2072
 11  1    1.3753 11  2    2.1235 11  3    0.0551 12  1    1.1990 12  2    0.6086
 12  3    2.0217 13  1    1.3988 13  2    2.1117 13  3    6.2768 14  1    1.3534
 14  2    2.0906 14  3    0.0025 15  1    1.1235 15  2    2.3811 15  3    0.6981
 16  1    1.1201 16  2    2.5038 16  3    4.1543 17  1    1.1106 17  2    1.9187
 17  3    2.1064 18  1    1.0996 18  2    1.9343 18  3    4.1373 19  1    1.1186
 19  2    1.8705 19  3    1.2511 20  1    1.1058 20  2    1.8914 20  3    5.5426
 21  1    1.0925 21  2    1.9736 21  3    4.6919 22  1    1.1169 22  2    1.7462
 22  3    2.7296 23  1    1.1082 23  2    1.8222 23  3    3.6409 24  1    1.1028
 24  2    1.9333 24  3    1.6382 25  1    1.0843 25  2    2.1336 25  3    3.1507
 26  1    1.0841 26  2    2.0924 26  3    3.1222 27  1    1.0898 27  2    2.0899
 27  3    3.1357 28  1    1.0930 28  2    0.6127 28  3    5.4029 29  1    1.0906
 29  2    2.2645 29  3    2.3604
 grad
      -0.00000   -0.00000    0.00000    6.49867    0.00000    0.00000   -7.73933    5.22173
       0.00000   32.33309  -14.59531  -13.81808  -15.82351   67.93051   -7.30368   -9.82186
     -15.96782    2.30263   -9.66243  -13.06387    1.11185    6.50231    2.41740   -5.20893
      -7.31394    0.08060   19.10025  -22.45719  -13.04946    3.16393   17.15879   32.99812
      -1.10627  -21.93548  -14.39847   -1.06066  -22.08445   37.51600    1.12745  -16.10506
      17.98716    0.55514   -6.13519    2.17771   -1.33030   -5.55531   -0.96844   -4.29787
      -5.41176   -0.54977   -1.98873   -7.28201   -2.33519    4.35105   -3.23023   -3.81740
       0.37041   -8.36331   -1.97618   -1.00027   -7.56726   15.27287   -3.24546   -2.10562
     -12.44829   -3.74618   -4.65636   -6.79468    5.02473   -3.23890    9.31338    1.74219
      -5.53167   -3.35892    0.06472   -4.04934   -0.98348   -1.27471   -5.63041    1.70293
      -0.70987    2.19480  -60.37399   -8.76563    6.53277  -64.16766    1.68083
 CYCLE:     8 TIME:   0.016 TIME LEFT:  2.00D  GRAD.:   147.682 HEAT:  218.1767

          HESSIAN HAS  0 NEGATIVE EIGENVALUE(S)
  MIN SEARCH, CORRECT HESSIAN, TRYING PURE NR STEP
 LAMBDA THAT MINIMIZES ALONG ALL MODES =        0.000000000
 PURE NR-STEP HAS LENGTH   0.60694
 LAMBDA THAT MINIMIZES ALONG ALL MODES =      -50.777390648
 P-RFO-STEP   HAS LENGTH   0.46109
 LAMBDA THAT MINIMIZES ALONG ALL MODES =     -575.710296856
 QA/TRIM-STEP HAS LENGTH   0.14142

  HEAT OF FORMATION        216.97034415076632    
 PARAMETERS       -0.008  -0.021  -0.060   2.268  -0.002   0.010   3.462   2.311
   0.057   2.512   2.097   1.093   2.475   1.030   3.130   1.508   0.627   3.978

   1.466   1.532   1.211   1.635   1.204   1.242   1.627   1.256   3.517   1.356

   2.587   4.202   1.366   2.104   0.055   1.210   0.618   2.020   1.405   2.090

   6.274   1.362   2.081  -0.000   1.129   2.378   0.701   1.124   2.504   4.159

   1.114   1.920   2.108   1.103   1.938   4.130   1.122   1.875   1.250   1.110

   1.893   5.543   1.095   1.953   4.696   1.116   1.764   2.735   1.109   1.833

   3.634   1.104   1.920   1.636   1.087   2.137   3.150   1.085   2.094   3.123

   1.092   2.088   3.136   1.089   0.693   5.416   1.083   2.349   2.357
 GRADIENT         -0.000  -0.000  -0.000 -14.835   0.000   0.000 -13.986  79.751
   0.000 -26.200 -31.064  84.524  -2.261 -41.512  99.775 -21.871  12.973   0.495

   2.464  33.908 -17.442  -0.801  27.410 -27.634  19.056 -34.886 -18.491-106.832

-223.543  -2.811-200.607-438.561  -9.448  95.366 139.451  -2.029 -92.162-422.499

  -4.454  84.714-198.229  -2.990   1.900  -6.136   0.598 -14.603   5.963  -5.462

  -1.530  -2.048   0.283  -3.218  -3.703   1.466  -5.672   1.565   6.936  -7.410

  -0.194  -1.830  -4.835  12.548  -4.128   1.036 -11.299  -0.220  -4.226  -5.320

   1.874  -7.019  11.172  -3.380 -15.407   8.680  -0.220  -2.823  -3.998  -1.116

  -3.352   0.679  -0.828   7.800 -64.051  -8.734   8.391 -70.547   2.268
       HoF         ACTUAL,  PREDICTED ENERGY CHANGE, RATIO
   216.9703442    -1.2063920         -14.4574808    0.0834441
     STEPSIZE USED IS  0.14142
 CALCULATED STEP
     0.001351 -0.006930 -0.009778 -0.006329  0.004004  0.000592 -0.000927  0.011967
     0.006836 -0.017066 -0.007941  0.029716  0.003049 -0.021848  0.008086  0.001173
     0.014833 -0.005861  0.000964  0.007721 -0.003353 -0.005525 -0.004336  0.007796
     0.000885 -0.005592 -0.023941 -0.000959  0.000215 -0.004877 -0.009176 -0.019495
     0.000139  0.011368  0.009511 -0.001588  0.006202 -0.021788 -0.003205  0.008716
    -0.009497 -0.002686  0.005821 -0.002760  0.002718  0.004179  0.000278  0.004454
     0.003694  0.001060  0.001720  0.003395  0.003386 -0.007478  0.003292  0.004161
    -0.001614  0.004105  0.001442  0.000649  0.002315 -0.021031  0.004431 -0.000418
     0.018144  0.005354  0.000350  0.010701 -0.007175  0.001284 -0.013543 -0.001963
     0.002625  0.002963 -0.001026  0.000885  0.001242  0.001060  0.002564 -0.002359
     0.000216 -0.003895  0.080695  0.012680 -0.007262  0.084667 -0.003537
     NEW TRUST RADIUS =  0.14142
*REMARK   3 HET = Not identified; C 11 H 15 N 2 O    =    29 atoms res:    1
 PM7 CHARGE=+1 EF NOXYZ PRNT=2 PDBOUT COMPFG GRAPHF
 (1R,9S)-7-aza-11-azoniatricyclo[7.3.1.02,7]trideca-2,4-dien-6-one

  O(HETATM    1  O   HET A   1)  -0.00841613 +1   -0.0207136 +1   -0.0595599 +1
  N(HETATM    2  N1  HET A   1)   2.26830054 +1   -0.1381423 +1    0.5757803 +1     1     0     0
  N(HETATM    3  N2  HET A   1)   3.46198825 +1  132.4363219 +1    3.2378032 +1     2     1     0
  C(HETATM    4  C1  HET A   1)   2.51187810 +1  120.1466583 +1   62.6444921 +1     2     1     3
  C(HETATM    5  C2  HET A   1)   2.47469717 +1   59.0172524 +1  179.3555762 +1     4     2     1
  C(HETATM    6  C3  HET A   1)   1.50790424 +1   35.9406474 +1 -132.0610181 +1     5     4     2
  C(HETATM    7  C4  HET A   1)   1.46620714 +1   87.7791131 +1   69.4055153 +1     2     1     3
  C(HETATM    8  C5  HET A   1)   1.63538039 +1   69.0073650 +1   71.1575192 +1     3     2     1
  C(HETATM    9  C6  HET A   1)   1.62675898 +1   71.9490718 +1 -158.4981508 +1     3     2     1
[...]

  -0.042   0.065  -0.039   0.080   0.045  -0.014   0.001   0.082  -0.037   0.018

   0.045  -0.014   0.029   0.081  -0.071   0.018   0.032  -0.021   0.020   0.096

  -0.033   0.029   0.084  -0.031   0.002   0.054  -0.016   0.005   0.062  -0.038

  -0.002   0.043  -0.046   0.007   0.062  -0.027   0.030   0.057  -0.017  -0.050

   0.064  -0.038   0.044   0.079  -0.126   0.033   0.061   0.048  -0.028
       HoF         ACTUAL,  PREDICTED ENERGY CHANGE, RATIO
   124.4443713    -0.0005593          -0.0004593    1.2178901
     STEPSIZE USED IS  0.00655
 CALCULATED STEP
    -0.000810 -0.000676 -0.001450  0.000076  0.000824  0.001484  0.000098 -0.000362
    -0.001428  0.000326  0.000418 -0.000169  0.000234 -0.000182  0.000656  0.000062
    -0.000079  0.000345  0.000022  0.000397 -0.000860  0.000096  0.000622  0.001372
    -0.000021 -0.000291  0.001271  0.000041 -0.000346 -0.000042 -0.000000  0.000310
    -0.002060  0.000005 -0.000061  0.001298 -0.000014 -0.000050  0.001545 -0.000053
    -0.000061 -0.000908  0.000004 -0.000461  0.001541  0.000025  0.000007 -0.001503
     0.000047 -0.000219 -0.000125  0.000006  0.000116 -0.000191  0.000002 -0.000138
    -0.001332  0.000030 -0.000378 -0.001115 -0.000032  0.000113 -0.001121  0.000024
    -0.000227 -0.001168  0.000021 -0.000151 -0.000631  0.000007  0.000223 -0.000668
     0.000024 -0.000039 -0.000193  0.000008 -0.000214  0.001564  0.000000 -0.000075
    -0.000721  0.000013 -0.000316  0.001859 -0.000010  0.000397  0.000925
     NEW TRUST RADIUS =  0.15746
*REMARK   3 HET = Not identified; C 11 H 15 N 2 O    =    29 atoms res:    1
 PM7 CHARGE=+1 EF NOXYZ PRNT=2 PDBOUT COMPFG GRAPHF
 (1R,9S)-7-aza-11-azoniatricyclo[7.3.1.02,7]trideca-2,4-dien-6-one

  O(HETATM    1  O   HET A   1)   0.56686242 +1    0.0845275 +1    0.4792185 +1
  N(HETATM    2  N1  HET A   1)   2.24891740 +1  -50.8106420 +1 -114.7795239 +1     1     0     0
  N(HETATM    3  N2  HET A   1)   2.98181621 +1  123.8539359 +1   62.8064735 +1     2     1     0
  C(HETATM    4  C1  HET A   1)   2.52937791 +1  118.9674028 +1   63.5574183 +1     2     1     3
  C(HETATM    5  C2  HET A   1)   2.47502405 +1   59.6980792 +1 -177.8674850 +1     4     2     1
  C(HETATM    6  C3  HET A   1)   1.53025324 +1   36.0165391 +1 -131.4429642 +1     5     4     2
  C(HETATM    7  C4  HET A   1)   1.47918915 +1   86.8939404 +1   74.2716415 +1     2     1     3
  C(HETATM    8  C5  HET A   1)   1.52140093 +1   84.6649333 +1   85.2760290 +1     3     2     1
  C(HETATM    9  C6  HET A   1)   1.52189957 +1   84.6009882 +1 -163.4752691 +1     3     2     1
  C(HETATM   10  C7  HET A   1)   1.38585732 +1  149.9027497 +1 -121.0794280 +1     2     1     3
  C(HETATM   11  C8  HET A   1)   1.36719521 +1  120.7752160 +1    3.0061277 +1    10     2     1
  C(HETATM   12  C9  HET A   1)   1.20819191 +1   35.4151575 +1  120.9534550 +1     1     2     3
  C(HETATM   13  C10 HET A   1)   1.42983280 +1  120.2556157 +1   -3.5346693 +1    11    10     2
  C(HETATM   14  C11 HET A   1)   1.35428187 +1  120.1725206 +1    2.8256366 +1    13    11    10
  H(HETATM   15  H1  HET A   1)   1.12597682 +1  138.7417418 +1   40.5570619 +1     4     2     1
  H(HETATM   16  H2  HET A   1)   1.12512209 +1  145.3156900 +1 -130.1575174 +1     5     4     2
  H(HETATM   17 1H3  HET A   1)   1.11348684 +1  110.3263920 +1  120.9183356 +1     6     5     4
  H(HETATM   18 2H3  HET A   1)   1.10732301 +1  111.5588177 +1 -123.3855131 +1     6     5     4
  H(HETATM   19 1H4  HET A   1)   1.12220281 +1  108.3916279 +1   74.6467044 +1     7     2     1
  H(HETATM   20 2H4  HET A   1)   1.12108981 +1  108.2593877 +1  -38.4067077 +1     7     2     1
  H(HETATM   21 1H5  HET A   1)   1.11685062 +1  108.5402907 +1  -95.8224202 +1     8     3     2
  H(HETATM   22 2H5  HET A   1)   1.11504285 +1  109.2732701 +1  147.6863247 +1     8     3     2
  H(HETATM   23 1H6  HET A   1)   1.11424005 +1  109.5820488 +1 -146.4649497 +1     9     3     2
  H(HETATM   24 2H6  HET A   1)   1.11616773 +1  108.7838592 +1   96.4809527 +1     9     3     2
  H(HETATM   25  H11 HET A   1)   1.09507652 +1  123.1200504 +1 -179.6552013 +1    14    13    11
  H(HETATM   26  H8  HET A   1)   1.08817536 +1  121.3916416 +1  177.4464132 +1    11    10     2
  H(HETATM   27  H10 HET A   1)   1.09643313 +1  118.2667620 +1 -177.1871411 +1    13    11    10
  H(HETATM   28 1H2  HET A   1)   1.05089714 +1   42.7378714 +1  -38.9037663 +1     3     2     1
  H(HETATM   29 2H2  HET A   1)   1.03905511 +1  151.3491001 +1  -39.3273261 +1     3     2     1

 XPARAM 
  1  1    0.5669  1  2    0.0845  1  3    0.4792  2  1    2.2489  2  2   -0.8868
  2  3   -2.0033  3  1    2.9818  3  2    2.1617  3  3    1.0962  4  1    2.5294
  4  2    2.0764  4  3    1.1093  5  1    2.4750  5  2    1.0419  5  3    3.1788
  6  1    1.5303  6  2    0.6286  6  3    3.9891  7  1    1.4792  7  2    1.5166
  7  3    1.2963  8  1    1.5214  8  2    1.4777  8  3    1.4883  9  1    1.5219
  9  2    1.4766  9  3    3.4300 10  1    1.3859 10  2    2.6163 10  3    4.1700
 11  1    1.3672 11  2    2.1079 11  3    0.0525 12  1    1.2082 12  2    0.6181
 12  3    2.1110 13  1    1.4298 13  2    2.0989 13  3    6.2215 14  1    1.3543
 14  2    2.0974 14  3    0.0493 15  1    1.1260 15  2    2.4215 15  3    0.7079
 16  1    1.1251 16  2    2.5362 16  3    4.0115 17  1    1.1135 17  2    1.9256
 17  3    2.1104 18  1    1.1073 18  2    1.9471 18  3    4.1297 19  1    1.1222
 19  2    1.8918 19  3    1.3028 20  1    1.1211 20  2    1.8895 20  3    5.6129
 21  1    1.1169 21  2    1.8944 21  3    4.6108 22  1    1.1150 22  2    1.9072
 22  3    2.5776 23  1    1.1142 23  2    1.9126 23  3    3.7269 24  1    1.1162
 24  2    1.8986 24  3    1.6839 25  1    1.0951 25  2    2.1489 25  3    3.1476
 26  1    1.0882 26  2    2.1187 26  3    3.0970 27  1    1.0964 27  2    2.0641
 27  3    3.1907 28  1    1.0509 28  2    0.7459 28  3    5.6042 29  1    1.0391
 29  2    3.6416 29  3    2.4552
 grad
       0.00001    0.00001    0.00001   -0.10562    0.00000    0.00000    0.08447   -0.22744
       0.00000    0.23828   -0.16799    0.13527    0.19944    0.01030   -0.08059    0.19267
      -0.06522    0.00325    0.11085   -0.21308    0.06878    0.09672    0.03785    0.02138
       0.19509   -0.05659    0.07974    0.26441   -0.16069    0.01870    0.12578   -0.02874
       0.08595    0.11872   -0.09475   -0.00152    0.31843   -0.12962   -0.04163    0.06549
      -0.03904    0.08045    0.04499   -0.01369    0.00104    0.08189   -0.03726    0.01784
       0.04518   -0.01393    0.02878    0.08126   -0.07087    0.01804    0.03226   -0.02127
       0.02017    0.09586   -0.03256    0.02910    0.08409   -0.03102    0.00216    0.05357
      -0.01648    0.00499    0.06185   -0.03759   -0.00205    0.04296   -0.04637    0.00723
       0.06225   -0.02696    0.02981    0.05741   -0.01661   -0.05047    0.06434   -0.03822
       0.04399    0.07869   -0.12648    0.03333    0.06135    0.04823   -0.02799
 CYCLE:    76 TIME:   0.016 TIME LEFT:  2.00D  GRAD.:     0.875 HEAT:  124.4444

     GRADIENT =  0.87534 IS LESS THAN CUTOFF =  1.00000



  HEAT OF FORMATION        124.44437091134023    

 -------------------------------------------------------------------------------
 PM7 CHARGE=+1 EF NOXYZ PRNT=2 PDBOUT COMPFG GRAPHF
 (1R,9S)-7-aza-11-azoniatricyclo[7.3.1.02,7]trideca-2,4-dien-6-one



     GEOMETRY OPTIMISED USING EIGENVECTOR FOLLOWING (EF).     
     SCF FIELD WAS ACHIEVED                                   


                              PM7 CALCULATION
                                                       MOPAC v22.0.6 Linux
                                                       Sun Oct 12 20:06:56 2025




          FINAL HEAT OF FORMATION =        124.44437 KCAL/MOL =     520.67525 KJ/MOL


          COSMO AREA              =        208.22 SQUARE ANGSTROMS
          COSMO VOLUME            =        230.85 CUBIC ANGSTROMS

          GRADIENT NORM           =          0.87534          =       0.16255 PER ATOM
          IONIZATION POTENTIAL    =         12.240092 EV
          HOMO LUMO ENERGIES (EV) =        -12.240 -3.853
          NO. OF FILLED LEVELS    =         37
          MOLECULAR WEIGHT        =        191.2523         POINT GROUP:  C1  

          MOLECULAR DIMENSIONS (Angstroms)

            Atom       Atom       Distance
            H    27    H    22     7.57567
            H    23    O     1     5.50067
            H    29    H    17     4.80990


          SCF CALCULATIONS        =         85

          WALL-CLOCK TIME         =      0.953 SECONDS
          COMPUTATION TIME        =      0.757 SECONDS




  ATOM               CHEMICAL                 BOND LENGTH      BOND ANGLE     TWIST ANGLE 
 NUMBER               SYMBOL                  (ANGSTROMS)      (DEGREES)       (DEGREES) 
   (I)                                           NA:I           NB:NA:I       NC:NB:NA:I       NA    NB    NC 
     1       O(HETATM    1  O   HET A   1)    0.56686242  *    0.0845275  *    0.4792185  *
     2       N(HETATM    2  N1  HET A   1)    2.24891740  *  -50.8106420  * -114.7795239  *     1     0     0
     3       N(HETATM    3  N2  HET A   1)    2.98181621  *  123.8539359  *   62.8064735  *     2     1     0
     4       C(HETATM    4  C1  HET A   1)    2.52937791  *  118.9674028  *   63.5574183  *     2     1     3
     5       C(HETATM    5  C2  HET A   1)    2.47502405  *   59.6980792  * -177.8674850  *     4     2     1
     6       C(HETATM    6  C3  HET A   1)    1.53025324  *   36.0165391  * -131.4429642  *     5     4     2
     7       C(HETATM    7  C4  HET A   1)    1.47918915  *   86.8939404  *   74.2716415  *     2     1     3
     8       C(HETATM    8  C5  HET A   1)    1.52140093  *   84.6649333  *   85.2760290  *     3     2     1
     9       C(HETATM    9  C6  HET A   1)    1.52189957  *   84.6009882  * -163.4752691  *     3     2     1
    10       C(HETATM   10  C7  HET A   1)    1.38585732  *  149.9027497  * -121.0794280  *     2     1     3
    11       C(HETATM   11  C8  HET A   1)    1.36719521  *  120.7752160  *    3.0061277  *    10     2     1
    12       C(HETATM   12  C9  HET A   1)    1.20819191  *   35.4151575  *  120.9534550  *     1     2     3
    13       C(HETATM   13  C10 HET A   1)    1.42983280  *  120.2556157  *   -3.5346693  *    11    10     2
    14       C(HETATM   14  C11 HET A   1)    1.35428187  *  120.1725206  *    2.8256366  *    13    11    10
    15       H(HETATM   15  H1  HET A   1)    1.12597682  *  138.7417418  *   40.5570619  *     4     2     1
    16       H(HETATM   16  H2  HET A   1)    1.12512209  *  145.3156900  * -130.1575174  *     5     4     2
    17       H(HETATM   17 1H3  HET A   1)    1.11348684  *  110.3263920  *  120.9183356  *     6     5     4
    18       H(HETATM   18 2H3  HET A   1)    1.10732301  *  111.5588177  * -123.3855131  *     6     5     4
    19       H(HETATM   19 1H4  HET A   1)    1.12220281  *  108.3916279  *   74.6467044  *     7     2     1
    20       H(HETATM   20 2H4  HET A   1)    1.12108981  *  108.2593877  *  -38.4067077  *     7     2     1
    21       H(HETATM   21 1H5  HET A   1)    1.11685062  *  108.5402907  *  -95.8224202  *     8     3     2
    22       H(HETATM   22 2H5  HET A   1)    1.11504285  *  109.2732701  *  147.6863247  *     8     3     2
    23       H(HETATM   23 1H6  HET A   1)    1.11424005  *  109.5820488  * -146.4649497  *     9     3     2
    24       H(HETATM   24 2H6  HET A   1)    1.11616773  *  108.7838592  *   96.4809527  *     9     3     2
    25       H(HETATM   25  H11 HET A   1)    1.09507652  *  123.1200504  * -179.6552013  *    14    13    11
    26       H(HETATM   26  H8  HET A   1)    1.08817536  *  121.3916416  *  177.4464132  *    11    10     2
    27       H(HETATM   27  H10 HET A   1)    1.09643313  *  118.2667620  * -177.1871411  *    13    11    10
    28       H(HETATM   28 1H2  HET A   1)    1.05089714  *   42.7378714  *  -38.9037663  *     3     2     1
    29       H(HETATM   29 2H2  HET A   1)    1.03905511  *  151.3491001  *  -39.3273261  *     3     2     1

                             CARTESIAN COORDINATES

   1    O        0.566862425     0.084527540     0.479218503
   2    N        2.815779823     0.084527540     0.479218503
   3    N        4.476882908     2.560807900     0.479218503
   4    C        4.040787758     1.069951837     2.460644027
   5    C        5.304238224     0.194099746     0.520973929
   6    C        5.206109143     0.168740511     2.047867040
   7    C        2.735630820     0.484912489     1.900931753
   8    C        4.294476453     2.512828157     1.988882907
   9    C        5.603410930     1.632695256     0.048266259
  10    C        4.014789606    -0.274231250    -0.115985817
  11    C        4.031777471    -0.926481498    -1.317444839
  12    C        1.551508048    -0.275585288    -0.121214214
  13    C        2.806527929    -1.315900699    -1.943174868
  14    C        1.619872222    -0.990529189    -1.377435536
  15    H        3.957165447     1.089099164     3.583348127
  16    H        6.147248351    -0.474136816     0.191286886
  17    H        5.042048256    -0.872160257     2.407676095
  18    H        6.157363551     0.479425413     2.521949520
  19    H        2.434910871    -0.411820864     2.504898596
  20    H        1.883549292     1.204369442     2.015740817
  21    H        3.438942662     3.175753280     2.264468684
  22    H        5.203760029     2.928176427     2.482856336
  23    H        6.567691430     1.992562713     0.475102791
  24    H        5.696522609     1.672502964    -1.063298388
  25    H        0.653766047    -1.268542807    -1.811647322
  26    H        4.967489336    -1.176476933    -1.813500475
  27    H        2.859246558    -1.878408923    -2.882840154
  28    H        3.585995415     2.228998078     0.031327313
  29    H        4.664804830     3.532730637     0.163485928


           Empirical Formula: C11 H15 N2 O  =    29 atoms



      MOLECULAR POINT GROUP   :   C1  


                  EIGENVALUES  
 -43.30731 -40.46355 -34.21924 -33.51859 -32.71616 -31.50334 -28.96145 -28.19654
 -27.84849 -26.00675 -25.62545 -25.17938 -24.10222 -23.04747 -21.55012 -21.23877
 -20.97200 -20.31629 -20.01316 -19.58195 -19.42648 -19.23137 -18.63782 -18.39227
 -18.19409 -17.97401 -17.39516 -16.91345 -16.65725 -16.44988 -16.27398 -15.86899
 -15.63440 -15.55575 -14.17442 -13.64004 -12.24009  -3.85335  -3.73671  -2.71023
  -2.08110  -2.04010  -1.50532  -1.26959  -1.05514  -0.90558  -0.81103  -0.71167
  -0.40106  -0.17078   0.13540   0.21955   0.31574   0.52873   0.63086   0.67381
   0.71948   0.96034   1.32555   1.42295   1.43293   1.51695   1.53137   1.73880
   1.95420   2.20448   2.28825   2.58169   2.66672   2.86596   3.18362


              NET ATOMIC CHARGES AND DIPOLE CONTRIBUTIONS

  ATOM NO.                 TYPE                        CHARGE      No. of ELECS.   s-Pop       p-Pop       
    1          O(HETATM    1  O   HET A   1)          -0.464312        6.4643     1.88036     4.58395
    2          N(HETATM    2  N1  HET A   1)          -0.478395        5.4784     1.59177     3.88662
    3          N(HETATM    3  N2  HET A   1)          -0.172399        5.1724     1.50708     3.66532
    4          C(HETATM    4  C1  HET A   1)          -0.144147        4.1441     1.07098     3.07316
    5          C(HETATM    5  C2  HET A   1)          -0.146213        4.1462     1.06935     3.07686
    6          C(HETATM    6  C3  HET A   1)          -0.294929        4.2949     1.06321     3.23172
    7          C(HETATM    7  C4  HET A   1)          -0.109846        4.1098     1.07290     3.03695
    8          C(HETATM    8  C5  HET A   1)          -0.180044        4.1800     1.09869     3.08136
    9          C(HETATM    9  C6  HET A   1)          -0.178592        4.1786     1.09825     3.08034
   10          C(HETATM   10  C7  HET A   1)           0.164583        3.8354     1.06899     2.76643
   11          C(HETATM   11  C8  HET A   1)          -0.315040        4.3150     1.07628     3.23876
   12          C(HETATM   12  C9  HET A   1)           0.566173        3.4338     1.09198     2.34184
   13          C(HETATM   13  C10 HET A   1)          -0.000513        4.0005     1.09155     2.90897
   14          C(HETATM   14  C11 HET A   1)          -0.304169        4.3042     1.09082     3.21335
   15          H(HETATM   15  H1  HET A   1)           0.191555        0.8084     0.80845
   16          H(HETATM   16  H2  HET A   1)           0.196149        0.8039     0.80385
   17          H(HETATM   17 1H3  HET A   1)           0.187746        0.8123     0.81225
   18          H(HETATM   18 2H3  HET A   1)           0.168667        0.8313     0.83133
   19          H(HETATM   19 1H4  HET A   1)           0.183883        0.8161     0.81612
   20          H(HETATM   20 2H4  HET A   1)           0.188399        0.8116     0.81160
   21          H(HETATM   21 1H5  HET A   1)           0.186487        0.8135     0.81351
   22          H(HETATM   22 2H5  HET A   1)           0.184195        0.8158     0.81580
   23          H(HETATM   23 1H6  HET A   1)           0.187113        0.8129     0.81289
   24          H(HETATM   24 2H6  HET A   1)           0.186164        0.8138     0.81384
   25          H(HETATM   25  H11 HET A   1)           0.214088        0.7859     0.78591
   26          H(HETATM   26  H8  HET A   1)           0.184149        0.8159     0.81585
   27          H(HETATM   27  H10 HET A   1)           0.183450        0.8166     0.81655
   28          H(HETATM   28 1H2  HET A   1)           0.316928        0.6831     0.68307
   29          H(HETATM   29 2H2  HET A   1)           0.298870        0.7011     0.70113
 DIPOLE           X         Y         Z       TOTAL
 POINT-CHG.     8.034     6.545     0.948    10.406
 HYBRID        -0.099     0.735     0.082     0.746
 SUM            7.935     7.279     1.030    10.818


          ATOMIC ORBITAL ELECTRON POPULATIONS

                   Atom                  s        px        py        pz   
   O(HETATM    1  O   HET A   1)   1.88036   1.41536   1.53734   1.63125
   N(HETATM    2  N1  HET A   1)   1.59177   1.14813   1.55201   1.18648
   N(HETATM    3  N2  HET A   1)   1.50708   1.23924   1.22052   1.20557
   C(HETATM    4  C1  HET A   1)   1.07098   1.01050   0.93222   1.13045
   C(HETATM    5  C2  HET A   1)   1.06935   1.07005   0.98376   1.02305
   C(HETATM    6  C3  HET A   1)   1.06321   1.08855   1.14951   0.99366
   C(HETATM    7  C4  HET A   1)   1.07290   1.03771   1.16014   0.83910
   C(HETATM    8  C5  HET A   1)   1.09869   1.19623   1.10460   0.78053
   C(HETATM    9  C6  HET A   1)   1.09825   0.95954   0.97151   1.14929
   C(HETATM   10  C7  HET A   1)   1.06899   0.84569   0.96054   0.96020
   C(HETATM   11  C8  HET A   1)   1.07628   1.09906   1.10496   1.03475
   C(HETATM   12  C9  HET A   1)   1.09198   0.73741   0.76236   0.84207
   C(HETATM   13  C10 HET A   1)   1.09155   0.95532   0.92241   1.03124
   C(HETATM   14  C11 HET A   1)   1.09082   1.09789   1.09873   1.01674
   H(HETATM   15  H1  HET A   1)   0.80845
   H(HETATM   16  H2  HET A   1)   0.80385
   H(HETATM   17 1H3  HET A   1)   0.81225
   H(HETATM   18 2H3  HET A   1)   0.83133
   H(HETATM   19 1H4  HET A   1)   0.81612
   H(HETATM   20 2H4  HET A   1)   0.81160
   H(HETATM   21 1H5  HET A   1)   0.81351
   H(HETATM   22 2H5  HET A   1)   0.81580
   H(HETATM   23 1H6  HET A   1)   0.81289
   H(HETATM   24 2H6  HET A   1)   0.81384
   H(HETATM   25  H11 HET A   1)   0.78591
   H(HETATM   26  H8  HET A   1)   0.81585
   H(HETATM   27  H10 HET A   1)   0.81655
   H(HETATM   28 1H2  HET A   1)   0.68307
   H(HETATM   29 2H2  HET A   1)   0.70113

           DATA FOR GRAPH WRITTEN TO DISK

 **********************
 *                    *
 * JOB ENDED NORMALLY *
 *                    *
 **********************



 TOTAL JOB TIME:             0.96 SECONDS

 == MOPAC DONE ==
