 *******************************************************************************
 **                                                                           **
 **                              MOPAC v22.0.6                                **
 **                                                                           **
 *******************************************************************************
 **          Digital Object Identifier (DOI): 10.5281/zenodo.6511958          **
 **    Visit the DOI location for information on how to cite this program.    **
 *******************************************************************************

                              PM7 CALCULATION RESULTS

 *******************************************************************************
 *  CALCULATION DONE:                                Sun Oct 12 20:13:47 2025  *
 *  PM7        - The PM7 Hamiltonian to be used
 *  PDBOUT     - PRINT GEOMETRY IN PDB FORMAT
 *  RESIDUES   - DETERMINE THE SEQUENCE OF RESIDUES
 *
 *
 *
 *                 CHARGE ON SYSTEM = +1
 *
 *
 *
 *  EF         - USE EF ROUTINE FOR MINIMUM SEARCH
 *  T=         - A TIME OF 172800.0 SECONDS REQUESTED
 *  DUMP=N     - RESTART FILE WRITTEN EVERY 7200.0 SECONDS REQUESTED
 *  NOXYZ      - CARTESIAN COORDINATES NOT TO BE PRINTED
 *  PRNT       - EXTRA PRINTING IN EF ROUTINE
 *  GRAPH      - GENERATE FILE FOR GRAPHICS
 *  COMPFG     - PRINT HEAT OF FORMATION CALC'D IN COMPFG
 *******************************************************************************
PM7 CHARGE=+1 EF NOXYZ PRNT=2 PDBOUT COMPFG GRAPHF
 5,6-dihydroisoquinolino[2,1-b]isoquinolin-7-ium

  ATOM    CHEMICAL      BOND LENGTH      BOND ANGLE     TWIST ANGLE 
 NUMBER    SYMBOL       (ANGSTROMS)      (DEGREES)       (DEGREES) 
   (I)                     NA:I           NB:NA:I       NC:NB:NA:I       NA    NB    NC 
     1       N          0.00000000  *    0.0000000  *    0.0000000  *     0     0     0
     2       C          1.46857700  *    0.0000000  *    0.0000000  *     1     0     0
     3       C          1.52959300  *  111.1464920  *    0.0000000  *     2     1     0
     4       C          1.38228100  *  120.4972390  *   43.2786890  *     1     2     3
     5       C          1.51605100  *  109.9609460  *  -47.2931350  *     3     2     1
     6       C          1.41008900  *  120.5854170  *   29.1899010  *     5     3     2
     7       C          1.36806000  *  118.7596970  * -144.5759710  *     1     2     3
     8       C          1.40853300  *  118.4252500  *  164.3837930  *     4     1     2
     9       C          1.39141900  *  121.5321950  * -164.4507960  *     7     1     2
    10       C          1.39223600  *  121.0831680  *    3.4411720  *     8     4     1
    11       C          1.39630600  *  118.4182090  * -152.5629250  *     5     3     2
    12       C          1.40762400  *  117.4125480  *  178.1900490  *     6     5     3
    13       C          1.39607400  *  120.7855190  *  176.9559620  *     9     7     1
    14       C          1.39652100  *  120.9220460  *  179.4722150  *    10     8     4
    15       C          1.38874200  *  120.4220120  * -178.5134860  *    11     5     3
    16       C          1.38833500  *  119.5649170  *    0.2827880  *    15    11     5
    17       C          1.39376900  *  119.8953210  *  179.8917420  *    13     9     7
    18       C          1.39360300  *  120.0511010  *   -0.2100550  *    17    13     9
    19       H          1.09504200  *  108.6050030  * -119.8092450  *     2     1     3
    20       H          1.09446500  *  110.8977230  *  121.2659960  *     2     1     3
    21       H          1.09320100  *  109.5533300  * -169.3904880  *     3     2     1
    22       H          1.09308300  *  109.6935610  *   72.7794170  *     3     2     1
    23       H          1.09019700  *  116.9198410  *   12.4934620  *     7     1     2
    24       H          1.08389500  *  121.8838590  * -178.7685210  *     8     4     1
    25       H          1.08825500  *  120.3762040  *    1.1525020  *    11     5     3
    26       H          1.08323000  *  122.4148850  *  179.0417720  *    12     6     5
    27       H          1.08802800  *  120.6350450  *   -0.2210160  *    13     9     7
    28       H          1.08828900  *  120.6194600  *    0.9044200  *    14    10     8
    29       H          1.08805100  *  120.2508320  * -179.8980540  *    15    11     5
    30       H          1.08805000  *  119.7336130  * -179.8874020  *    16    15    11
    31       H          1.08803500  *  120.0519130  *  179.9017760  *    17    13     9
    32       H          1.08806000  *  119.9294450  * -179.7770320  *    18    17    13


 General Reference for PM7:
 "Optimization of Parameters for Semiempirical Methods VI: More Modifications to the 
 NDDO Approximations and Re-optimization of Parameters", J. J. P. Stewart, J. Mol. Mod., 1:32, 19 (2013)
 https://link.springer.com/article/10.1007/s00894-012-1667-x

           Empirical Formula: C17 H14 N  =    32 atoms



      MOLECULAR POINT GROUP   :   C1  


      RHF CALCULATION, NO. OF DOUBLY OCCUPIED LEVELS = 43


          Geometry optimization using EF

  HEAT OF FORMATION        217.81993792569119    
 PARAMETERS        0.000   0.000   0.000   1.469   0.000   0.000   1.530   1.940
   0.000   1.382   2.103   0.755   1.516   1.919   5.458   1.410   2.105   0.509

   1.368   2.073   3.760   1.409   2.067   2.869   1.391   2.121   3.413   1.392

   2.113   0.060   1.396   2.067   3.620   1.408   2.049   3.110   1.396   2.108

   3.088   1.397   2.110   3.132   1.389   2.102   3.168   1.388   2.087   0.005

   1.394   2.093   3.140   1.394   2.095   6.280   1.095   1.896   4.192   1.094

   1.936   2.116   1.093   1.912   3.327   1.093   1.915   1.270   1.090   2.041

   0.218   1.084   2.127   3.163   1.088   2.101   0.020   1.083   2.137   3.125

   1.088   2.105   6.279   1.088   2.105   0.016   1.088   2.099   3.143   1.088

   2.090   3.144   1.088   2.095   3.140   1.088   2.093   3.145
 GRADIENT         -0.000   0.000  -0.000 -34.654   0.000   0.000 -47.210 -83.095
   0.000 -35.931  10.499   2.062  -4.012 -88.394  51.974  24.818 -37.432   3.698

  11.650  61.256 -10.305  -9.244 -75.629   1.442   5.226  -2.034   6.349 -26.365

 -37.442   1.392   7.081   2.496   0.264   2.838 -12.028  -2.292 -16.709 -39.327

  -0.426 -38.330 -21.983  -1.261  -3.979   3.654  -1.386  -6.867   2.683  -0.510

  28.773  40.925   0.156 -31.519  21.395   0.179 -17.413   1.710   3.117 -14.766

   0.889  -3.197 -11.698  -1.566   2.086 -13.251  -4.817  -1.740  -8.287  -1.561

   0.300  -7.535   8.207  -0.633  -2.618   1.464  -0.223  -5.675   6.665  -0.569

  -3.177   0.385  -0.137  -3.053   0.984  -0.211  -4.117   0.363  -0.158  -3.409

  -0.994   0.127  -4.209   0.575   0.081  -4.747  -0.276  -0.031

          DIAGONAL MATRIX USED AS START HESSIAN

*REMARK   3 HET = Not identified; C 17 H 14 N        =    32 atoms res:    1
 PM7 CHARGE=+1 EF NOXYZ PRNT=2 PDBOUT COMPFG GRAPHF
 5,6-dihydroisoquinolino[2,1-b]isoquinolin-7-ium

  N(HETATM    1  N   HET A   1)   0.00000000 +1    0.0000000 +1    0.0000000 +1
  C(HETATM    2  C1  HET A   1)   1.46857700 +1    0.0000000 +1    0.0000000 +1     1     0     0
  C(HETATM    3  C2  HET A   1)   1.52959300 +1  111.1464920 +1    0.0000000 +1     2     1     0
  C(HETATM    4  C3  HET A   1)   1.38228100 +1  120.4972390 +1   43.2786890 +1     1     2     3
  C(HETATM    5  C4  HET A   1)   1.51605100 +1  109.9609460 +1  -47.2931350 +1     3     2     1
  C(HETATM    6  C5  HET A   1)   1.41008900 +1  120.5854170 +1   29.1899010 +1     5     3     2
  C(HETATM    7  C6  HET A   1)   1.36806000 +1  118.7596970 +1 -144.5759710 +1     1     2     3
  C(HETATM    8  C7  HET A   1)   1.40853300 +1  118.4252500 +1  164.3837930 +1     4     1     2
  C(HETATM    9  C8  HET A   1)   1.39141900 +1  121.5321950 +1 -164.4507960 +1     7     1     2
  C(HETATM   10  C9  HET A   1)   1.39223600 +1  121.0831680 +1    3.4411720 +1     8     4     1
  C(HETATM   11  C10 HET A   1)   1.39630600 +1  118.4182090 +1 -152.5629250 +1     5     3     2
  C(HETATM   12  C11 HET A   1)   1.40762400 +1  117.4125480 +1  178.1900490 +1     6     5     3
  C(HETATM   13  C12 HET A   1)   1.39607400 +1  120.7855190 +1  176.9559620 +1     9     7     1
  C(HETATM   14  C13 HET A   1)   1.39652100 +1  120.9220460 +1  179.4722150 +1    10     8     4
  C(HETATM   15  C14 HET A   1)   1.38874200 +1  120.4220120 +1 -178.5134860 +1    11     5     3
  C(HETATM   16  C15 HET A   1)   1.38833500 +1  119.5649170 +1    0.2827880 +1    15    11     5
  C(HETATM   17  C16 HET A   1)   1.39376900 +1  119.8953210 +1  179.8917420 +1    13     9     7
  C(HETATM   18  C17 HET A   1)   1.39360300 +1  120.0511010 +1   -0.2100550 +1    17    13     9
  H(HETATM   19 1H1  HET A   1)   1.09504200 +1  108.6050030 +1 -119.8092450 +1     2     1     3
  H(HETATM   20 2H1  HET A   1)   1.09446500 +1  110.8977230 +1  121.2659960 +1     2     1     3
  H(HETATM   21 1H2  HET A   1)   1.09320100 +1  109.5533300 +1 -169.3904880 +1     3     2     1
  H(HETATM   22 2H2  HET A   1)   1.09308300 +1  109.6935610 +1   72.7794170 +1     3     2     1
  H(HETATM   23  H6  HET A   1)   1.09019700 +1  116.9198410 +1   12.4934620 +1     7     1     2
  H(HETATM   24  H7  HET A   1)   1.08389500 +1  121.8838590 +1 -178.7685210 +1     8     4     1
  H(HETATM   25  H10 HET A   1)   1.08825500 +1  120.3762040 +1    1.1525020 +1    11     5     3
  H(HETATM   26  H11 HET A   1)   1.08323000 +1  122.4148850 +1  179.0417720 +1    12     6     5
  H(HETATM   27  H12 HET A   1)   1.08802800 +1  120.6350450 +1   -0.2210160 +1    13     9     7
  H(HETATM   28  H13 HET A   1)   1.08828900 +1  120.6194600 +1    0.9044200 +1    14    10     8
  H(HETATM   29  H14 HET A   1)   1.08805100 +1  120.2508320 +1 -179.8980540 +1    15    11     5
  H(HETATM   30  H15 HET A   1)   1.08805000 +1  119.7336130 +1 -179.8874020 +1    16    15    11
  H(HETATM   31  H16 HET A   1)   1.08803500 +1  120.0519130 +1  179.9017760 +1    17    13     9
  H(HETATM   32  H17 HET A   1)   1.08806000 +1  119.9294450 +1 -179.7770320 +1    18    17    13

 XPARAM 
  1  1    0.0000  1  2    0.0000  1  3    0.0000  2  1    1.4686  2  2    0.0000
  2  3    0.0000  3  1    1.5296  3  2    1.9399  3  3    0.0000  4  1    1.3823
  4  2    2.1031  4  3    0.7554  5  1    1.5161  5  2    1.9192  5  3    5.4578
  6  1    1.4101  6  2    2.1046  6  3    0.5095  7  1    1.3681  7  2    2.0727
  7  3    3.7599  8  1    1.4085  8  2    2.0669  8  3    2.8690  9  1    1.3914
  9  2    2.1211  9  3    3.4130 10  1    1.3922 10  2    2.1133 10  3    0.0601
 11  1    1.3963 11  2    2.0668 11  3    3.6205 12  1    1.4076 12  2    2.0492
 12  3    3.1100 13  1    1.3961 13  2    2.1081 13  3    3.0885 14  1    1.3965
 14  2    2.1105 14  3    3.1324 15  1    1.3887 15  2    2.1018 15  3    3.1675
 16  1    1.3883 16  2    2.0868 16  3    0.0049 17  1    1.3938 17  2    2.0926
 17  3    3.1397 18  1    1.3936 18  2    2.0953 18  3    6.2795 19  1    1.0950
 19  2    1.8955 19  3    4.1921 20  1    1.0945 20  2    1.9355 20  3    2.1165
 21  1    1.0932 21  2    1.9121 21  3    3.3268 22  1    1.0931 22  2    1.9145
 22  3    1.2702 23  1    1.0902 23  2    2.0406 23  3    0.2181 24  1    1.0839
 24  2    2.1273 24  3    3.1631 25  1    1.0883 25  2    2.1010 25  3    0.0201
 26  1    1.0832 26  2    2.1365 26  3    3.1249 27  1    1.0880 27  2    2.1055
 27  3    6.2793 28  1    1.0883 28  2    2.1052 28  3    0.0158 29  1    1.0881
 29  2    2.0988 29  3    3.1434 30  1    1.0880 30  2    2.0897 30  3    3.1436
 31  1    1.0880 31  2    2.0953 31  3    3.1399 32  1    1.0881 32  2    2.0932
 32  3    3.1455
 grad
      -0.00000    0.00000   -0.00000  -34.65396    0.00000    0.00000  -47.20958  -83.09510
       0.00000  -35.93051   10.49867    2.06243   -4.01162  -88.39412   51.97399   24.81810
     -37.43241    3.69795   11.64974   61.25632  -10.30540   -9.24432  -75.62911    1.44224
       5.22616   -2.03442    6.34872  -26.36525  -37.44189    1.39190    7.08127    2.49563
       0.26361    2.83811  -12.02816   -2.29152  -16.70855  -39.32658   -0.42610  -38.32963
     -21.98285   -1.26108   -3.97907    3.65357   -1.38647   -6.86669    2.68281   -0.51020
      28.77266   40.92500    0.15562  -31.51886   21.39521    0.17897  -17.41295    1.71026
       3.11675  -14.76595    0.88868   -3.19670  -11.69794   -1.56557    2.08612  -13.25069
      -4.81650   -1.74045   -8.28720   -1.56118    0.29958   -7.53495    8.20661   -0.63277
      -2.61819    1.46432   -0.22253   -5.67460    6.66532   -0.56857   -3.17667    0.38512
      -0.13739   -3.05318    0.98381   -0.21054   -4.11713    0.36348   -0.15759   -3.40881
      -0.99398    0.12718   -4.20864    0.57518    0.08064   -4.74736   -0.27613   -0.03136
 CYCLE:     1 TIME:   0.023 TIME LEFT:  2.00D  GRAD.:   213.474 HEAT:  217.8199

          HESSIAN HAS  0 NEGATIVE EIGENVALUE(S)
  MIN SEARCH, CORRECT HESSIAN, TRYING PURE NR STEP
 LAMBDA THAT MINIMIZES ALONG ALL MODES =        0.000000000
 PURE NR-STEP HAS LENGTH   0.43279
 LAMBDA THAT MINIMIZES ALONG ALL MODES =      -66.855864009
 P-RFO-STEP   HAS LENGTH   0.36281
 LAMBDA THAT MINIMIZES ALONG ALL MODES =     -461.571613983
 QA/TRIM-STEP HAS LENGTH   0.20000

  HEAT OF FORMATION        366.48512332158134    
 PARAMETERS       -0.021  -0.006   0.011   1.473  -0.021   0.011   1.555   2.005
   0.004   1.401   2.074   0.755   1.512   2.003   5.383   1.388   2.124   0.507

   1.354   1.998   3.779   1.409   2.132   2.870   1.383   2.112   3.406   1.405

   2.132   0.061   1.386   2.053   3.623   1.400   2.049   3.117   1.402   2.136

   3.092   1.417   2.121   3.137   1.386   2.086   3.173   1.388   2.064   0.009

   1.369   2.038   3.143   1.410   2.068   6.282   1.105   1.892   4.189   1.103

   1.931   2.122   1.099   1.911   3.325   1.100   1.915   1.274   1.094   2.037

   0.219   1.088   2.116   3.165   1.088   2.095   0.021   1.086   2.127   3.127

   1.089   2.105   6.280   1.089   2.099   0.017   1.089   2.096   3.144   1.089

   2.088   3.144   1.089   2.092   3.141   1.090   2.091   3.146
 GRADIENT         -0.000   0.000  -0.000  50.011   0.000   0.000 123.661 265.841
   0.000 267.984-876.373-193.557  84.348 300.854-148.507-124.243 602.695  13.592

 193.194******** 223.473 201.655 984.412 -48.814 -90.411 739.048  50.921-153.964

 635.099   4.520-198.109 413.920 -10.169  94.187-259.303  -1.319 137.843-380.422

   1.180 118.874-302.486  -1.042 -86.677-416.675  -1.241  63.577-209.638  -0.383

 -88.605 195.108   7.059 -89.231 -12.354   4.514 -10.282   2.220   2.446  -8.720

  -0.287  -1.949 -11.034   7.703   9.704  -6.338  -1.495   0.943  -6.561  -4.706

   0.421  -3.408   9.159  -0.559  -2.506  -1.580  -0.329 -13.125  15.114  -0.178

  -3.452  -0.370  -0.110  20.773 -32.757   0.049  -1.885  -1.983   0.145 -12.454

   8.419   1.056  -2.220  -8.758   0.296  -2.195  10.514   0.739
       HoF         ACTUAL,  PREDICTED ENERGY CHANGE, RATIO
   366.4851233   148.6651854         -28.5587591   -5.2055898
 UNACCEPTABLE RATIO, REJECTING STEP, REDUCING DMAX TO 0.1000
  MIN SEARCH, CORRECT HESSIAN, TRYING PURE NR STEP
 LAMBDA THAT MINIMIZES ALONG ALL MODES =        0.000000000
 PURE NR-STEP HAS LENGTH   0.43279
 LAMBDA THAT MINIMIZES ALONG ALL MODES =      -66.855864009
 P-RFO-STEP   HAS LENGTH   0.36281
 LAMBDA THAT MINIMIZES ALONG ALL MODES =    -1417.879917067
 QA/TRIM-STEP HAS LENGTH   0.10000

  HEAT OF FORMATION        260.57603531610221    
 PARAMETERS       -0.012  -0.004   0.005   1.472  -0.010   0.004   1.545   1.972
   0.001   1.394   2.088   0.755   1.514   1.961   5.427   1.396   2.115   0.508

   1.360   2.036   3.767   1.409   2.100   2.869   1.386   2.116   3.410   1.399

   2.123   0.060   1.390   2.060   3.622   1.403   2.049   3.113   1.400   2.122

   3.090   1.409   2.116   3.134   1.387   2.094   3.170   1.387   2.075   0.006

   1.379   2.065   3.141   1.404   2.082   6.281   1.101   1.894   4.191   1.099

   1.933   2.119   1.097   1.912   3.326   1.097   1.915   1.272   1.092   2.039

   0.218   1.086   2.122   3.164   1.088   2.098   0.021   1.085   2.132   3.126

   1.089   2.105   6.280   1.088   2.102   0.016   1.089   2.097   3.144   1.088

   2.089   3.144   1.089   2.094   3.140   1.089   2.092   3.146
 GRADIENT         -0.000   0.000  -0.000  33.425   0.000   0.000  91.267 210.914
   0.000 204.464-746.234-160.136  67.535 236.012-107.171 -75.667 337.667  12.115

 175.558-865.325 188.940 124.803 797.202 -42.350 -65.418 645.190  44.720-164.882

 491.259   3.849 -90.136 193.031  -3.976  47.771-132.551  -0.651 109.957-341.020

  -0.122  34.027-246.424  -0.328 -41.934-189.787   0.445  23.036 -95.167   0.504

 -22.218 222.412   5.178 -91.344  40.907   3.044 -12.901   1.951   2.702 -10.955

   0.434  -2.534 -10.448   2.822   5.362  -9.340  -2.789  -0.797  -7.218  -3.129

   0.330  -5.293   9.350  -0.602  -2.643  -0.107  -0.277  -9.019  11.655  -0.526

  -3.391   0.293  -0.120  12.997 -20.234   0.154  -2.885  -0.776  -0.041  -7.617

   3.506   0.465  -3.061  -4.621   0.196  -5.333   8.752   0.413
       HoF         ACTUAL,  PREDICTED ENERGY CHANGE, RATIO
   260.5760353    42.7560974         -16.9005410   -2.5298656
 UNACCEPTABLE RATIO, REJECTING STEP, REDUCING DMAX TO 0.0500
  MIN SEARCH, CORRECT HESSIAN, TRYING PURE NR STEP
 LAMBDA THAT MINIMIZES ALONG ALL MODES =        0.000000000
 PURE NR-STEP HAS LENGTH   0.43279
 LAMBDA THAT MINIMIZES ALONG ALL MODES =      -66.855864009
 P-RFO-STEP   HAS LENGTH   0.36281
 LAMBDA THAT MINIMIZES ALONG ALL MODES =    -3374.420298735
 QA/TRIM-STEP HAS LENGTH   0.05000

  HEAT OF FORMATION        225.76834899914684    
 PARAMETERS       -0.007  -0.002   0.002   1.470  -0.005   0.002   1.538   1.956
   0.001   1.388   2.096   0.755   1.515   1.940   5.444   1.402   2.110   0.509

   1.364   2.054   3.763   1.409   2.083   2.869   1.388   2.119   3.412   1.396

   2.118   0.060   1.393   2.063   3.621   1.405   2.049   3.111   1.398   2.115

   3.089   1.403   2.113   3.133   1.388   2.098   3.168   1.388   2.081   0.006

   1.385   2.079   3.140   1.399   2.089   6.280   1.098   1.895   4.191   1.097

   1.934   2.118   1.095   1.912   3.326   1.095   1.915   1.271   1.091   2.040

   0.218   1.085   2.124   3.163   1.088   2.099   0.020   1.084   2.134   3.125

   1.088   2.105   6.280   1.088   2.104   0.016   1.088   2.098   3.144   1.088

   2.089   3.144   1.088   2.094   3.140   1.089   2.093   3.146
 GRADIENT         -0.000   0.000  -0.000  10.033   0.000   0.000  43.999 114.221
   0.000 111.906-457.398 -97.438  42.826 128.295 -53.900 -37.180 174.813   9.041

 116.849-518.482 114.727  66.764 466.479 -28.076 -40.179 401.135  29.518-121.055

 281.694   2.171 -39.921  93.076  -1.638  25.159 -71.429  -1.257  59.014-220.459

  -0.465  -7.645-153.210  -0.241 -21.882 -87.933  -0.237   6.571 -43.612   0.116

   8.565 158.843   2.729 -66.753  42.892   1.596 -14.868   1.835   2.879 -12.628

   0.694  -2.844 -10.822   0.585   3.611 -11.142  -3.727  -1.357  -7.691  -2.360

   0.303  -6.365   8.984  -0.635  -2.666   0.665  -0.249  -7.214   9.401  -0.585

  -3.276   0.421  -0.128   6.092 -10.779   0.053  -3.488  -0.194  -0.110  -5.415

   1.172   0.268  -3.610  -2.144   0.137  -5.572   5.048   0.195
       HoF         ACTUAL,  PREDICTED ENERGY CHANGE, RATIO
   225.7683490     7.9484111          -9.1443894   -0.8692118
 UNACCEPTABLE RATIO, REJECTING STEP, REDUCING DMAX TO 0.0250
  MIN SEARCH, CORRECT HESSIAN, TRYING PURE NR STEP
 LAMBDA THAT MINIMIZES ALONG ALL MODES =        0.000000000
 PURE NR-STEP HAS LENGTH   0.43279
 LAMBDA THAT MINIMIZES ALONG ALL MODES =      -66.855864009
 P-RFO-STEP   HAS LENGTH   0.36281
 LAMBDA THAT MINIMIZES ALONG ALL MODES =    -7312.412726435
 QA/TRIM-STEP HAS LENGTH   0.02500

  HEAT OF FORMATION        217.61840532668430    
 PARAMETERS       -0.003  -0.001   0.001   1.470  -0.003   0.001   1.534   1.948
   0.000   1.385   2.100   0.755   1.516   1.930   5.451   1.406   2.107   0.509

   1.366   2.064   3.762   1.409   2.075   2.869   1.390   2.120   3.412   1.394

   2.116   0.060   1.394   2.065   3.621   1.406   2.049   3.111   1.397   2.112

   3.089   1.400   2.112   3.133   1.388   2.100   3.168   1.388   2.084   0.005

   1.389   2.086   3.140   1.397   2.092   6.280   1.097   1.895   4.192   1.096

   1.935   2.117   1.094   1.912   3.327   1.094   1.915   1.271   1.091   2.040

   0.218   1.085   2.126   3.163   1.088   2.100   0.020   1.084   2.135   3.125

   1.088   2.105   6.279   1.088   2.104   0.016   1.088   2.098   3.143   1.088

   2.090   3.144   1.088   2.095   3.140   1.088   2.093   3.146
 GRADIENT         -0.000   0.000  -0.000  -9.101   0.000   0.000   5.111  31.345
   0.000  44.504-242.543 -51.638  22.754  37.052  -9.555  -9.679  76.293   6.608

  69.624-256.006  58.200  32.050 221.061 -15.515 -21.349 216.080  18.617 -80.179

 134.750   1.523 -16.069  46.011  -0.631  13.837 -41.432  -1.722  23.224-133.829

  -0.485 -23.715 -90.335  -0.569 -12.416 -40.359  -0.775  -0.786 -19.571  -0.179

  19.517 103.656   1.366 -48.911  33.942   0.844 -16.059   1.775   2.983 -13.628

   0.798  -3.012 -11.192  -0.502   2.816 -12.151  -4.249  -1.565  -7.992  -1.966

   0.300  -6.930   8.640  -0.636  -2.662   1.051  -0.238  -6.386   8.111  -0.589

  -3.256   0.419  -0.133   1.780  -5.167  -0.055  -3.785   0.075  -0.137  -4.398

   0.050   0.191  -3.887  -0.808   0.109  -5.312   2.558   0.083
       HoF         ACTUAL,  PREDICTED ENERGY CHANGE, RATIO
   217.6184053    -0.2015326          -4.7511726    0.0424174
     STEPSIZE USED IS  0.02500
 CALCULATED STEP
    -0.003421 -0.001149  0.001116  0.001001 -0.002547  0.000929  0.004353  0.008028
     0.000303  0.003200 -0.003571 -0.000014 -0.000514  0.010403 -0.006608 -0.004123
     0.002461 -0.000234 -0.002361 -0.009126  0.001643  0.000090  0.008079  0.000079
    -0.001564 -0.001156 -0.000591  0.002014  0.002341  0.000072 -0.001826 -0.001677
     0.000236 -0.001365  0.000014  0.000581  0.001041  0.003513  0.000315  0.003647
     0.001306  0.000425 -0.000491 -0.001957  0.000445 -0.000360 -0.002808  0.000334
    -0.004442 -0.006741  0.000243  0.003015 -0.003273  0.000239  0.001776 -0.000473
    -0.000314  0.001430 -0.000553  0.000523  0.001077 -0.000130 -0.000178  0.001227
     0.000102  0.000331  0.000645 -0.000408  0.000047  0.000632 -0.001393  0.000164
    -0.000024 -0.000812  0.000111  0.000410 -0.001199  0.000154  0.000160 -0.000115
     0.000100  0.000029 -0.000751  0.000109  0.000213 -0.000392  0.000103  0.000125
    -0.000218  0.000066  0.000223 -0.000420  0.000072  0.000287 -0.000310  0.000087
     NEW TRUST RADIUS =  0.02500

     HESSIAN IS BEING UPDATED USING THE BFGS UPDATE

*REMARK   3 HET = Not identified; C 17 H 14 N        =    32 atoms res:    1
 PM7 CHARGE=+1 EF NOXYZ PRNT=2 PDBOUT COMPFG GRAPHF
 5,6-dihydroisoquinolino[2,1-b]isoquinolin-7-ium

  N(HETATM    1  N   HET A   1)  -0.00342079 +1   -0.0011486 +1    0.0011159 +1
  C(HETATM    2  C1  HET A   1)   1.46957822 +1   -0.1459371 +1    0.0532522 +1     1     0     0
  C(HETATM    3  C2  HET A   1)   1.53394636 +1  111.6064381 +1    0.0173456 +1     2     1     0
  C(HETATM    4  C3  HET A   1)   1.38548069 +1  120.2926518 +1   43.2779019 +1     1     2     3
  C(HETATM    5  C4  HET A   1)   1.51553684 +1  110.5570121 +1  -47.6717501 +1     3     2     1
  C(HETATM    6  C5  HET A   1)   1.40596626 +1  120.7263975 +1   29.1764991 +1     5     3     2
  C(HETATM    7  C6  HET A   1)   1.36569899 +1  118.2367879 +1 -144.4818158 +1     1     2     3
  C(HETATM    8  C7  HET A   1)   1.40862309 +1  118.8881617 +1  164.3882943 +1     4     1     2
  C(HETATM    9  C8  HET A   1)   1.38985452 +1  121.4659729 +1 -164.4846429 +1     7     1     2
  C(HETATM   10  C9  HET A   1)   1.39425023 +1  121.2173075 +1    3.4452706 +1     8     4     1
  C(HETATM   11  C10 HET A   1)   1.39448001 +1  118.3221485 +1 -152.5493827 +1     5     3     2
  C(HETATM   12  C11 HET A   1)   1.40625918 +1  117.4133261 +1  178.2233557 +1     6     5     3
  C(HETATM   13  C12 HET A   1)   1.39711519 +1  120.9867899 +1  176.9740061 +1     9     7     1
  C(HETATM   14  C13 HET A   1)   1.40016832 +1  120.9968693 +1  179.4965817 +1    10     8     4
  C(HETATM   15  C14 HET A   1)   1.38825084 +1  120.3098910 +1 -178.4879710 +1    11     5     3
  C(HETATM   16  C15 HET A   1)   1.38797483 +1  119.4040357 +1    0.3018965 +1    15    11     5
  C(HETATM   17  C16 HET A   1)   1.38932724 +1  119.5090705 +1  179.9056444 +1    13     9     7
  C(HETATM   18  C17 HET A   1)   1.39661774 +1  119.8635911 +1   -0.1963800 +1    17    13     9
  H(HETATM   19 1H1  HET A   1)   1.09681812 +1  108.5779133 +1 -119.8272448 +1     2     1     3
  H(HETATM   20 2H1  HET A   1)   1.09589525 +1  110.8660401 +1  121.2959353 +1     2     1     3
  H(HETATM   21 1H2  HET A   1)   1.09427812 +1  109.5458648 +1 -169.4007134 +1     3     2     1
  H(HETATM   22 2H2  HET A   1)   1.09430950 +1  109.6994095 +1   72.7983633 +1     3     2     1
  H(HETATM   23  H6  HET A   1)   1.09084159 +1  116.8964758 +1   12.4961811 +1     7     1     2
  H(HETATM   24  H7  HET A   1)   1.08452746 +1  121.8040432 +1 -178.7591449 +1     8     4     1
  H(HETATM   25  H10 HET A   1)   1.08823052 +1  120.3296690 +1    1.1588842 +1    11     5     3
  H(HETATM   26  H11 HET A   1)   1.08364049 +1  122.3461884 +1  179.0506098 +1    12     6     5
  H(HETATM   27  H12 HET A   1)   1.08818787 +1  120.6284789 +1   -0.2153069 +1    13     9     7
  H(HETATM   28  H13 HET A   1)   1.08831794 +1  120.5764263 +1    0.9106882 +1    14    10     8
  H(HETATM   29  H14 HET A   1)   1.08826408 +1  120.2283666 +1 -179.8921552 +1    15    11     5
  H(HETATM   30  H15 HET A   1)   1.08817539 +1  119.7211041 +1 -179.8836270 +1    16    15    11
  H(HETATM   31  H16 HET A   1)   1.08825807 +1  120.0278773 +1  179.9058764 +1    17    13     9
  H(HETATM   32  H17 HET A   1)   1.08834740 +1  119.9116811 +1 -179.7720660 +1    18    17    13

 XPARAM 
  1  1   -0.0034  1  2   -0.0011  1  3    0.0011  2  1    1.4696  2  2   -0.0025
  2  3    0.0009  3  1    1.5339  3  2    1.9479  3  3    0.0003  4  1    1.3855
  4  2    2.0995  4  3    0.7553  5  1    1.5155  5  2    1.9296  5  3    5.4512
  6  1    1.4060  6  2    2.1071  6  3    0.5092  7  1    1.3657  7  2    2.0636
  7  3    3.7615  8  1    1.4086  8  2    2.0750  8  3    2.8691  9  1    1.3899
  9  2    2.1200  9  3    3.4124 10  1    1.3943 10  2    2.1156 10  3    0.0601
 11  1    1.3945 11  2    2.0651 11  3    3.6207 12  1    1.4063 12  2    2.0492
 12  3    3.1106 13  1    1.3971 13  2    2.1116 13  3    3.0888 14  1    1.4002
 14  2    2.1118 14  3    3.1328 15  1    1.3883 15  2    2.0998 15  3    3.1680
 16  1    1.3880 16  2    2.0840 16  3    0.0053 17  1    1.3893 17  2    2.0858
 17  3    3.1399 18  1    1.3966 18  2    2.0920 18  3    6.2798 19  1    1.0968
 19  2    1.8950 19  3    4.1918 20  1    1.0959 20  2    1.9350 20  3    2.1170
 21  1    1.0943 21  2    1.9119 21  3    3.3266 22  1    1.0943 22  2    1.9146
 22  3    1.2706 23  1    1.0908 23  2    2.0402 23  3    0.2181 24  1    1.0845
 24  2    2.1259 24  3    3.1632 25  1    1.0882 25  2    2.1001 25  3    0.0202
 26  1    1.0836 26  2    2.1353 26  3    3.1250 27  1    1.0882 27  2    2.1054
 27  3    6.2794 28  1    1.0883 28  2    2.1045 28  3    0.0159 29  1    1.0883
 29  2    2.0984 29  3    3.1435 30  1    1.0882 30  2    2.0895 30  3    3.1436
 31  1    1.0883 31  2    2.0949 31  3    3.1399 32  1    1.0883 32  2    2.0929
 32  3    3.1456
 grad
      -0.00000    0.00000   -0.00000   -9.10077    0.00000    0.00000    5.11089   31.34518
       0.00000   44.50380 -242.54291  -51.63781   22.75437   37.05204   -9.55470   -9.67911
      76.29341    6.60832   69.62418 -256.00633   58.20032   32.04990  221.06142  -15.51472
     -21.34892  216.07997   18.61683  -80.17932  134.75048    1.52263  -16.06875   46.01070
      -0.63137   13.83706  -41.43152   -1.72217   23.22352 -133.82942   -0.48452  -23.71514
     -90.33491   -0.56880  -12.41586  -40.35905   -0.77502   -0.78569  -19.57052   -0.17900
      19.51690  103.65563    1.36561  -48.91113   33.94232    0.84402  -16.05874    1.77475
       2.98321  -13.62818    0.79778   -3.01244  -11.19179   -0.50191    2.81643  -12.15063
      -4.24868   -1.56477   -7.99205   -1.96589    0.29974   -6.93022    8.63985   -0.63564
      -2.66223    1.05055   -0.23795   -6.38571    8.11148   -0.58852   -3.25594    0.41931
      -0.13271    1.77977   -5.16735   -0.05483   -3.78494    0.07466   -0.13668   -4.39809
       0.04962    0.19134   -3.88709   -0.80785    0.10924   -5.31158    2.55816    0.08334
 CYCLE:     2 TIME:   0.055 TIME LEFT:  2.00D  GRAD.:   563.910 HEAT:  217.6184

          HESSIAN HAS  0 NEGATIVE EIGENVALUE(S)
  MIN SEARCH, CORRECT HESSIAN, TRYING PURE NR STEP
 LAMBDA THAT MINIMIZES ALONG ALL MODES =        0.000000000
 PURE NR-STEP HAS LENGTH   1.02246
 LAMBDA THAT MINIMIZES ALONG ALL MODES =     -103.741348049
 P-RFO-STEP   HAS LENGTH   0.61085
 LAMBDA THAT MINIMIZES ALONG ALL MODES =    -6867.132680458
 QA/TRIM-STEP HAS LENGTH   0.02500

  HEAT OF FORMATION        227.28506263566669    
 PARAMETERS       -0.006  -0.002   0.002   1.471  -0.004   0.002   1.537   1.953
   0.001   1.386   2.106   0.757   1.514   1.937   5.446   1.403   2.106   0.509

   1.361   2.067   3.760   1.407   2.073   2.870   1.389   2.111   3.411   1.399

   2.112   0.060   1.394   2.062   3.621   1.405   2.051   3.111   1.397   2.120

   3.089   1.404   2.117   3.133   1.388   2.100   3.168   1.387   2.083   0.006

   1.385   2.077   3.140   1.401   2.088   6.280   1.099   1.895   4.191   1.098

   1.935   2.118   1.096   1.912   3.326   1.096   1.915   1.271   1.092   2.040

   0.218   1.085   2.124   3.163   1.088   2.099   0.020   1.084   2.134   3.125

   1.088   2.105   6.280   1.088   2.104   0.016   1.089   2.098   3.144   1.088

   2.089   3.144   1.089   2.095   3.140   1.089   2.093   3.146
 GRADIENT          0.000   0.000  -0.000  12.588   0.000   0.000  39.190 107.835
   0.000-158.387 876.990 194.969  35.613 114.549 -48.448 -23.019  85.912   6.246

-224.490 816.189-177.033 126.879-583.164  36.721-122.173-802.956 -32.017 209.883

-277.546   3.563  -5.148  15.733   0.290  11.597 -30.249  -1.291-248.980 504.417

   1.319  64.698 240.649  -4.271  -8.146 -12.281  -0.306  -5.760  -6.351   0.221

 -85.122-505.501  -1.604  67.188-255.690   0.305 -14.631   1.959   2.898 -12.509

   0.960  -2.913 -10.590   0.333   3.420 -11.120  -3.831  -1.541  -7.570  -3.407

   0.338  -6.420   8.422  -0.695  -2.742   0.902  -0.242  -5.197   7.156  -0.581

  -2.490  -0.271  -0.118 -12.527  10.322   0.115  -3.535  -0.069  -0.113  -3.678

  -0.633   0.246  -3.846  -1.029   0.106 -15.861  12.736   0.179
       HoF         ACTUAL,  PREDICTED ENERGY CHANGE, RATIO
   227.2850626     9.6666573          -6.7126481   -1.4400661
 UNACCEPTABLE RATIO, REJECTING STEP, REDUCING DMAX TO 0.0125
  MIN SEARCH, CORRECT HESSIAN, TRYING PURE NR STEP
 LAMBDA THAT MINIMIZES ALONG ALL MODES =        0.000000000
 PURE NR-STEP HAS LENGTH   1.02246
 LAMBDA THAT MINIMIZES ALONG ALL MODES =     -103.741348049
 P-RFO-STEP   HAS LENGTH   0.61085
 LAMBDA THAT MINIMIZES ALONG ALL MODES =   -17301.894279111
 QA/TRIM-STEP HAS LENGTH   0.01250

  HEAT OF FORMATION        218.08602587528003    
 PARAMETERS       -0.004  -0.002   0.001   1.470  -0.003   0.001   1.535   1.949
   0.000   1.385   2.104   0.757   1.515   1.932   5.450   1.405   2.106   0.509

   1.364   2.067   3.761   1.408   2.072   2.869   1.390   2.115   3.412   1.396

   2.113   0.060   1.394   2.064   3.621   1.406   2.050   3.111   1.397   2.116

   3.089   1.402   2.114   3.133   1.388   2.100   3.168   1.388   2.084   0.005

   1.388   2.082   3.140   1.399   2.091   6.280   1.098   1.895   4.192   1.097

   1.935   2.117   1.095   1.912   3.326   1.095   1.915   1.271   1.091   2.040

   0.218   1.085   2.125   3.163   1.088   2.100   0.020   1.084   2.135   3.125

   1.088   2.105   6.279   1.088   2.104   0.016   1.088   2.098   3.144   1.088

   2.089   3.144   1.088   2.095   3.140   1.089   2.093   3.146
 GRADIENT         -0.000  -0.000  -0.000   0.270   0.000   0.000  18.268  62.058
   0.000 -75.868 368.586  82.896  26.849  66.902 -24.865 -12.688  64.961   5.965

 -86.794 335.317 -71.514  66.408-239.285  14.639 -62.395-325.043  -8.122  73.277

-106.108   2.763  -5.227  20.066   0.087  10.691 -29.560  -1.566-117.825 194.364

   0.471  10.923  84.917  -2.810  -8.359 -15.626  -0.616  -4.802  -7.650  -0.008

 -27.618-202.463  -0.017   7.773-107.749   0.606 -15.494   1.871   2.971 -13.207

   0.912  -2.994 -10.942  -0.229   3.027 -11.767  -4.122  -1.584  -7.766  -2.738

   0.314  -6.764   8.477  -0.683  -2.702   1.040  -0.237  -5.550   7.321  -0.583

  -2.757   0.027  -0.124  -6.754   4.463  -0.004  -3.703   0.042  -0.127  -3.796

  -0.546   0.210  -3.943  -0.671   0.102 -10.780   7.621   0.106
       HoF         ACTUAL,  PREDICTED ENERGY CHANGE, RATIO
   218.0860259     0.4676205          -4.3740996   -0.1069067
 UNACCEPTABLE RATIO, REJECTING STEP, REDUCING DMAX TO 0.0062
  MIN SEARCH, CORRECT HESSIAN, TRYING PURE NR STEP
 LAMBDA THAT MINIMIZES ALONG ALL MODES =        0.000000000
 PURE NR-STEP HAS LENGTH   1.02246
 LAMBDA THAT MINIMIZES ALONG ALL MODES =     -103.741348049
 P-RFO-STEP   HAS LENGTH   0.61085
 LAMBDA THAT MINIMIZES ALONG ALL MODES =   -52460.426765130
 QA/TRIM-STEP HAS LENGTH   0.00625

  HEAT OF FORMATION        216.00924820292857    
 PARAMETERS       -0.004  -0.001   0.001   1.470  -0.003   0.001   1.534   1.948
   0.000   1.385   2.102   0.756   1.515   1.930   5.451   1.406   2.106   0.509

   1.365   2.066   3.761   1.408   2.073   2.869   1.390   2.117   3.412   1.395

   2.114   0.060   1.395   2.065   3.621   1.406   2.050   3.111   1.397   2.113

   3.089   1.401   2.113   3.133   1.388   2.100   3.168   1.388   2.084   0.005

   1.389   2.084   3.140   1.397   2.092   6.280   1.097   1.895   4.192   1.096

   1.935   2.117   1.094   1.912   3.327   1.095   1.915   1.271   1.091   2.040

   0.218   1.085   2.126   3.163   1.088   2.100   0.020   1.084   2.135   3.125

   1.088   2.105   6.279   1.088   2.104   0.016   1.088   2.098   3.143   1.088

   2.090   3.144   1.088   2.095   3.140   1.088   2.093   3.146
 GRADIENT         -0.000   0.000  -0.000  -5.895   0.000   0.000   8.570  39.965
   0.000 -18.262  59.320  14.745  23.177  44.521 -13.596  -9.014  62.496   6.079

  -6.302  39.659  -6.606  42.026 -15.479  -0.199 -36.323 -46.661   5.558  -6.059

   8.945   2.101  -8.493  29.192  -0.188  11.411 -32.966  -1.681 -43.968  21.546

  -0.037 -12.320  -5.302  -1.690  -9.719 -24.084  -0.741  -3.272 -11.642  -0.117

   0.532 -38.008   0.683 -23.167 -29.790   0.699 -15.881   1.820   2.995 -13.511

   0.865  -3.020 -11.108  -0.447   2.871 -12.046  -4.235  -1.590  -7.877  -2.336

   0.303  -6.899   8.539  -0.667  -2.675   1.082  -0.236  -5.906   7.591  -0.584

  -2.965   0.221  -0.128  -2.704   0.034  -0.044  -3.780   0.087  -0.134  -4.003

  -0.335   0.196  -3.954  -0.630   0.103  -7.919   4.880   0.083
       HoF         ACTUAL,  PREDICTED ENERGY CHANGE, RATIO
   216.0092482    -1.6091571          -2.7421352    0.5868263
     STEPSIZE USED IS  0.00625
 CALCULATED STEP
    -0.000191 -0.000086  0.000107  0.000178 -0.000105  0.000062  0.000139  0.000138
     0.000015 -0.000373  0.002645  0.000601 -0.000242  0.000239 -0.000255 -0.000197
    -0.000702 -0.000090 -0.000932  0.002501 -0.000585 -0.000372 -0.002043  0.000185
     0.000150 -0.002510 -0.000249  0.000971 -0.001389 -0.000014  0.000080 -0.000570
     0.000021 -0.000245  0.000536  0.000053 -0.000211  0.001805  0.000023  0.000485
     0.001176  0.000030  0.000108  0.000411  0.000034 -0.000083  0.000103  0.000021
    -0.000496 -0.001529 -0.000002  0.000802 -0.000506  0.000004  0.000298 -0.000033
    -0.000050  0.000236 -0.000030  0.000066  0.000195  0.000011 -0.000040  0.000202
     0.000064  0.000039  0.000112  0.000007  0.000001  0.000116 -0.000167  0.000018
     0.000009 -0.000051  0.000011  0.000096 -0.000150  0.000017  0.000064  0.000006
     0.000009 -0.000039  0.000024  0.000009  0.000055 -0.000011  0.000009  0.000057
    -0.000001  0.000003  0.000056 -0.000002  0.000005  0.000077 -0.000035  0.000006
     NEW TRUST RADIUS =  0.00884
*REMARK   3 HET = Not identified; C 17 H 14 N        =    32 atoms res:    1
 PM7 CHARGE=+1 EF NOXYZ PRNT=2 PDBOUT COMPFG GRAPHF
 5,6-dihydroisoquinolino[2,1-b]isoquinolin-7-ium

  N(HETATM    1  N   HET A   1)  -0.00361200 +1   -0.0012347 +1    0.0012229 +1
  C(HETATM    2  C1  HET A   1)   1.46975629 +1   -0.1519571 +1    0.0568248 +1     1     0     0
  C(HETATM    3  C2  HET A   1)   1.53408558 +1  111.6143502 +1    0.0181968 +1     2     1     0
  C(HETATM    4  C3  HET A   1)   1.38510771 +1  120.4441901 +1   43.3123349 +1     1     2     3
  C(HETATM    5  C4  HET A   1)   1.51529475 +1  110.5706824 +1  -47.6863569 +1     3     2     1
  C(HETATM    6  C5  HET A   1)   1.40576900 +1  120.6861922 +1   29.1713540 +1     5     3     2
  C(HETATM    7  C6  HET A   1)   1.36476685 +1  118.3800565 +1 -144.5153609 +1     1     2     3
  C(HETATM    8  C7  HET A   1)   1.40825130 +1  118.7710941 +1  164.3988944 +1     4     1     2
  C(HETATM    9  C8  HET A   1)   1.39000445 +1  121.3221478 +1 -164.4989080 +1     7     1     2
  C(HETATM   10  C9  HET A   1)   1.39522096 +1  121.1377459 +1    3.4444937 +1     8     4     1
  C(HETATM   11  C10 HET A   1)   1.39456015 +1  118.2894948 +1 -152.5481800 +1     5     3     2
  C(HETATM   12  C11 HET A   1)   1.40601428 +1  117.4440503 +1  178.2263662 +1     6     5     3
  C(HETATM   13  C12 HET A   1)   1.39690466 +1  121.0902015 +1  176.9753347 +1     9     7     1
  C(HETATM   14  C13 HET A   1)   1.40065361 +1  121.0642302 +1  179.4983134 +1    10     8     4
  C(HETATM   15  C14 HET A   1)   1.38835861 +1  120.3334340 +1 -178.4860157 +1    11     5     3
  C(HETATM   16  C15 HET A   1)   1.38789214 +1  119.4099585 +1    0.3031071 +1    15    11     5
  C(HETATM   17  C16 HET A   1)   1.38883086 +1  119.4214591 +1  179.9055400 +1    13     9     7
  C(HETATM   18  C17 HET A   1)   1.39741967 +1  119.8345920 +1   -0.1961651 +1    17    13     9
  H(HETATM   19 1H1  HET A   1)   1.09711620 +1  108.5760102 +1 -119.8300985 +1     2     1     3
  H(HETATM   20 2H1  HET A   1)   1.09613173 +1  110.8643235 +1  121.2997235 +1     2     1     3
  H(HETATM   21 1H2  HET A   1)   1.09447295 +1  109.5465078 +1 -169.4030275 +1     3     2     1
  H(HETATM   22 2H2  HET A   1)   1.09451195 +1  109.7030999 +1   72.8005814 +1     3     2     1
  H(HETATM   23  H6  HET A   1)   1.09095355 +1  116.8968818 +1   12.4962491 +1     7     1     2
  H(HETATM   24  H7  HET A   1)   1.08464319 +1  121.7944717 +1 -178.7580914 +1     8     4     1
  H(HETATM   25  H10 HET A   1)   1.08823922 +1  120.3267318 +1    1.1595083 +1    11     5     3
  H(HETATM   26  H11 HET A   1)   1.08373629 +1  122.3375979 +1  179.0516016 +1    12     6     5
  H(HETATM   27  H12 HET A   1)   1.08825200 +1  120.6288426 +1   -0.2147908 +1    13     9     7
  H(HETATM   28  H13 HET A   1)   1.08827884 +1  120.5778124 +1    0.9111834 +1    14    10     8
  H(HETATM   29  H14 HET A   1)   1.08831873 +1  120.2277502 +1 -179.8916253 +1    15    11     5
  H(HETATM   30  H15 HET A   1)   1.08823190 +1  119.7210726 +1 -179.8834323 +1    16    15    11
  H(HETATM   31  H16 HET A   1)   1.08831452 +1  120.0277563 +1  179.9061433 +1    17    13     9
  H(HETATM   32  H17 HET A   1)   1.08842410 +1  119.9096862 +1 -179.7717339 +1    18    17    13

 XPARAM 
  1  1   -0.0036  1  2   -0.0012  1  3    0.0012  2  1    1.4698  2  2   -0.0027
  2  3    0.0010  3  1    1.5341  3  2    1.9480  3  3    0.0003  4  1    1.3851
  4  2    2.1021  4  3    0.7559  5  1    1.5153  5  2    1.9298  5  3    5.4509
  6  1    1.4058  6  2    2.1064  6  3    0.5091  7  1    1.3648  7  2    2.0661
  7  3    3.7609  8  1    1.4083  8  2    2.0729  8  3    2.8693  9  1    1.3900
  9  2    2.1175  9  3    3.4121 10  1    1.3952 10  2    2.1143 10  3    0.0601
 11  1    1.3946 11  2    2.0645 11  3    3.6207 12  1    1.4060 12  2    2.0498
 12  3    3.1106 13  1    1.3969 13  2    2.1134 13  3    3.0888 14  1    1.4007
 14  2    2.1130 14  3    3.1328 15  1    1.3884 15  2    2.1002 15  3    3.1680
 16  1    1.3879 16  2    2.0841 16  3    0.0053 17  1    1.3888 17  2    2.0843
 17  3    3.1399 18  1    1.3974 18  2    2.0915 18  3    6.2798 19  1    1.0971
 19  2    1.8950 19  3    4.1918 20  1    1.0961 20  2    1.9349 20  3    2.1171
 21  1    1.0945 21  2    1.9119 21  3    3.3265 22  1    1.0945 22  2    1.9147
 22  3    1.2706 23  1    1.0910 23  2    2.0402 23  3    0.2181 24  1    1.0846
 24  2    2.1257 24  3    3.1633 25  1    1.0882 25  2    2.1001 25  3    0.0202
 26  1    1.0837 26  2    2.1352 26  3    3.1250 27  1    1.0883 27  2    2.1054
 27  3    6.2794 28  1    1.0883 28  2    2.1045 28  3    0.0159 29  1    1.0883
 29  2    2.0984 29  3    3.1435 30  1    1.0882 30  2    2.0895 30  3    3.1436
 31  1    1.0883 31  2    2.0949 31  3    3.1400 32  1    1.0884 32  2    2.0928
 32  3    3.1456
 grad
      -0.00000    0.00000   -0.00000   -5.89533    0.00000    0.00000    8.57027   39.96528
       0.00000  -18.26245   59.32027   14.74463   23.17683   44.52105  -13.59649   -9.01420
      62.49604    6.07933   -6.30175   39.65923   -6.60572   42.02564  -15.47939   -0.19907
     -36.32279  -46.66100    5.55769   -6.05882    8.94521    2.10089   -8.49307   29.19193
      -0.18779   11.41139  -32.96584   -1.68094  -43.96790   21.54551   -0.03741  -12.32005
      -5.30191   -1.68978   -9.71861  -24.08367   -0.74069   -3.27221  -11.64199   -0.11690
       0.53170  -38.00798    0.68278  -23.16705  -29.79039    0.69886  -15.88092    1.81960
       2.99482  -13.51051    0.86531   -3.01973  -11.10817   -0.44715    2.87079  -12.04596
      -4.23522   -1.59021   -7.87658   -2.33584    0.30263   -6.89929    8.53857   -0.66716
      -2.67469    1.08218   -0.23563   -5.90569    7.59068   -0.58431   -2.96514    0.22129
      -0.12822   -2.70426    0.03429   -0.04387   -3.77967    0.08667   -0.13393   -4.00255
      -0.33466    0.19603   -3.95373   -0.62955    0.10325   -7.91941    4.88004    0.08298
 CYCLE:     3 TIME:   0.031 TIME LEFT:  2.00D  GRAD.:   171.531 HEAT:  216.0092

          HESSIAN HAS  0 NEGATIVE EIGENVALUE(S)
  MIN SEARCH, CORRECT HESSIAN, TRYING PURE NR STEP
 LAMBDA THAT MINIMIZES ALONG ALL MODES =        0.000000000
 PURE NR-STEP HAS LENGTH   0.32410
 LAMBDA THAT MINIMIZES ALONG ALL MODES =      -35.014010927
 P-RFO-STEP   HAS LENGTH   0.28856
 LAMBDA THAT MINIMIZES ALONG ALL MODES =   -14887.603550707
 QA/TRIM-STEP HAS LENGTH   0.00884

  HEAT OF FORMATION        215.39018536752701    
 PARAMETERS       -0.003  -0.001   0.001   1.470  -0.002   0.001   1.533   1.946
   0.000   1.385   2.101   0.756   1.514   1.927   5.452   1.406   2.103   0.509

   1.364   2.066   3.761   1.405   2.072   2.870   1.392   2.119   3.412   1.396

   2.114   0.060   1.395   2.063   3.621   1.405   2.052   3.111   1.399   2.113

   3.089   1.401   2.114   3.133   1.389   2.102   3.168   1.388   2.086   0.005

   1.388   2.086   3.140   1.399   2.092   6.280   1.098   1.895   4.192   1.097

   1.935   2.117   1.095   1.912   3.326   1.095   1.915   1.271   1.091   2.041

   0.218   1.085   2.125   3.163   1.088   2.100   0.020   1.084   2.135   3.125

   1.088   2.105   6.279   1.088   2.105   0.016   1.088   2.098   3.144   1.088

   2.090   3.144   1.088   2.095   3.140   1.089   2.093   3.146
 GRADIENT         -0.000   0.000  -0.000 -12.989   0.000   0.000  -8.061   2.293
   0.000  -6.748  -7.841  -0.483  11.556   1.691   6.783  12.568 -37.508   3.160

   9.749  -6.899   3.649  26.181  13.114  -2.727 -23.776   5.940   7.726 -21.834

  18.497   1.781  23.680 -45.432   1.740  -3.440   9.155  -1.669 -25.455 -13.912

  -0.220 -18.124 -19.919  -1.357   3.068  48.309  -0.581 -15.153  24.004   0.151

   8.220  -0.240   0.583 -26.183  -9.391   0.547 -15.308   1.824   2.960 -13.025

   0.904  -3.028 -10.788  -0.587   2.815 -11.766  -4.253  -1.643  -7.687  -2.308

   0.333  -6.817   7.770  -0.620  -2.724   1.263  -0.233  -3.779   4.815  -0.499

  -2.900   0.502  -0.131  -2.207  -0.153  -0.071  -3.766   0.198  -0.123  -2.180

  -2.195   0.207  -3.846  -0.644   0.094  -6.485   3.566   0.054
       HoF         ACTUAL,  PREDICTED ENERGY CHANGE, RATIO
   215.3901854    -0.6190628          -1.2153875    0.5093543
     STEPSIZE USED IS  0.00884
 CALCULATED STEP
     0.000218  0.000443 -0.000392  0.000588  0.000946 -0.000418 -0.001018 -0.001578
     0.000035  0.000134 -0.000720 -0.000369 -0.001750 -0.003139  0.000902  0.000058
    -0.003377 -0.000331 -0.000588 -0.000176 -0.000013 -0.003010 -0.000617  0.000205
     0.001752  0.001087 -0.000393  0.000409 -0.000682 -0.000056  0.000197 -0.001943
     0.000083 -0.001152  0.002421  0.000175  0.001809  0.000037  0.000085  0.000419
     0.001220  0.000181  0.000204  0.001888  0.000125 -0.000351  0.001736  0.000080
    -0.000597  0.001554  0.000021  0.001337  0.000919  0.000026  0.000906 -0.000161
    -0.000187  0.000731  0.000039  0.000214  0.000595  0.000043 -0.000177  0.000632
     0.000425  0.000118  0.000347  0.000369  0.000001  0.000306 -0.000531  0.000071
     0.000011  0.000163  0.000041  0.000246 -0.000471  0.000066  0.000095 -0.000198
     0.000034 -0.000022  0.000272  0.000028  0.000113  0.000020  0.000034  0.000131
     0.000044  0.000011  0.000124  0.000068  0.000018  0.000354 -0.000274  0.000019
     NEW TRUST RADIUS =  0.01250
*REMARK   3 HET = Not identified; C 17 H 14 N        =    32 atoms res:    1
 PM7 CHARGE=+1 EF NOXYZ PRNT=2 PDBOUT COMPFG GRAPHF
 5,6-dihydroisoquinolino[2,1-b]isoquinolin-7-ium

  N(HETATM    1  N   HET A   1)  -0.00339410 +1   -0.0007914 +1    0.0008311 +1
  C(HETATM    2  C1  HET A   1)   1.47034385 +1   -0.0977675 +1    0.0328964 +1     1     0     0
  C(HETATM    3  C2  HET A   1)   1.53306721 +1  111.5239621 +1    0.0201928 +1     2     1     0
  C(HETATM    4  C3  HET A   1)   1.38524218 +1  120.4029319 +1   43.2911752 +1     1     2     3
  C(HETATM    5  C4  HET A   1)   1.51354434 +1  110.3908578 +1  -47.6346509 +1     3     2     1
  C(HETATM    6  C5  HET A   1)   1.40582675 +1  120.4927093 +1   29.1524154 +1     5     3     2
  C(HETATM    7  C6  HET A   1)   1.36417850 +1  118.3699634 +1 -144.5161052 +1     1     2     3
  C(HETATM    8  C7  HET A   1)   1.40524126 +1  118.7357645 +1  164.4106138 +1     4     1     2
  C(HETATM    9  C8  HET A   1)   1.39175663 +1  121.3844016 +1 -164.5214269 +1     7     1     2
  C(HETATM   10  C9  HET A   1)   1.39563016 +1  121.0986602 +1    3.4412950 +1     8     4     1
  C(HETATM   11  C10 HET A   1)   1.39475763 +1  118.1781745 +1 -152.5434142 +1     5     3     2
  C(HETATM   12  C11 HET A   1)   1.40486192 +1  117.5827832 +1  178.2363903 +1     6     5     3
  C(HETATM   13  C12 HET A   1)   1.39871353 +1  121.0923219 +1  176.9801774 +1     9     7     1
  C(HETATM   14  C13 HET A   1)   1.40107242 +1  121.1341345 +1  179.5086961 +1    10     8     4
  C(HETATM   15  C14 HET A   1)   1.38856282 +1  120.4416353 +1 -178.4788522 +1    11     5     3
  C(HETATM   16  C15 HET A   1)   1.38754143 +1  119.5094309 +1    0.3077021 +1    15    11     5
  C(HETATM   17  C16 HET A   1)   1.38823403 +1  119.5104928 +1  179.9067583 +1    13     9     7
  C(HETATM   18  C17 HET A   1)   1.39875713 +1  119.8872347 +1   -0.1946826 +1    17    13     9
  H(HETATM   19 1H1  HET A   1)   1.09802175 +1  108.5667924 +1 -119.8408177 +1     2     1     3
  H(HETATM   20 2H1  HET A   1)   1.09686266 +1  110.8665421 +1  121.3119774 +1     2     1     3
  H(HETATM   21 1H2  HET A   1)   1.09506769 +1  109.5489851 +1 -169.4131915 +1     3     2     1
  H(HETATM   22 2H2  HET A   1)   1.09514421 +1  109.7274618 +1   72.8073240 +1     3     2     1
  H(HETATM   23  H6  HET A   1)   1.09130062 +1  116.9179965 +1   12.4963092 +1     7     1     2
  H(HETATM   24  H7  HET A   1)   1.08494954 +1  121.7640310 +1 -178.7540316 +1     8     4     1
  H(HETATM   25  H10 HET A   1)   1.08825054 +1  120.3360498 +1    1.1618444 +1    11     5     3
  H(HETATM   26  H11 HET A   1)   1.08398269 +1  122.3106253 +1  179.0554005 +1    12     6     5
  H(HETATM   27  H12 HET A   1)   1.08834743 +1  120.6174762 +1   -0.2128410 +1    13     9     7
  H(HETATM   28  H13 HET A   1)   1.08825639 +1  120.5934012 +1    0.9128121 +1    14    10     8
  H(HETATM   29  H14 HET A   1)   1.08843163 +1  120.2288953 +1 -179.8896818 +1    15    11     5
  H(HETATM   30  H15 HET A   1)   1.08836309 +1  119.7235939 +1 -179.8827745 +1    16    15    11
  H(HETATM   31  H16 HET A   1)   1.08843814 +1  120.0316631 +1  179.9071692 +1    17    13     9
  H(HETATM   32  H17 HET A   1)   1.08877842 +1  119.8939951 +1 -179.7706369 +1    18    17    13

 XPARAM 
  1  1   -0.0034  1  2   -0.0008  1  3    0.0008  2  1    1.4703  2  2   -0.0017
  2  3    0.0006  3  1    1.5331  3  2    1.9465  3  3    0.0004  4  1    1.3852
  4  2    2.1014  4  3    0.7556  5  1    1.5135  5  2    1.9267  5  3    5.4518
  6  1    1.4058  6  2    2.1030  6  3    0.5088  7  1    1.3642  7  2    2.0659
  7  3    3.7609  8  1    1.4052  8  2    2.0723  8  3    2.8695  9  1    1.3918
  9  2    2.1186  9  3    3.4117 10  1    1.3956 10  2    2.1136 10  3    0.0601
 11  1    1.3948 11  2    2.0626 11  3    3.6208 12  1    1.4049 12  2    2.0522
 12  3    3.1108 13  1    1.3987 13  2    2.1135 13  3    3.0889 14  1    1.4011
 14  2    2.1142 14  3    3.1330 15  1    1.3886 15  2    2.1021 15  3    3.1681
 16  1    1.3875 16  2    2.0858 16  3    0.0054 17  1    1.3882 17  2    2.0859
 17  3    3.1400 18  1    1.3988 18  2    2.0924 18  3    6.2798 19  1    1.0980
 19  2    1.8948 19  3    4.1916 20  1    1.0969 20  2    1.9350 20  3    2.1173
 21  1    1.0951 21  2    1.9120 21  3    3.3264 22  1    1.0951 22  2    1.9151
 22  3    1.2707 23  1    1.0913 23  2    2.0406 23  3    0.2181 24  1    1.0849
 24  2    2.1252 24  3    3.1633 25  1    1.0883 25  2    2.1003 25  3    0.0203
 26  1    1.0840 26  2    2.1347 26  3    3.1251 27  1    1.0883 27  2    2.1052
 27  3    6.2795 28  1    1.0883 28  2    2.1048 28  3    0.0159 29  1    1.0884
 29  2    2.0984 29  3    3.1435 30  1    1.0884 30  2    2.0896 30  3    3.1436
 31  1    1.0884 31  2    2.0949 31  3    3.1400 32  1    1.0888 32  2    2.0925
 32  3    3.1456
 grad
      -0.00000    0.00000   -0.00000  -12.98851    0.00000    0.00000   -8.06106    2.29337
       0.00000   -6.74837   -7.84108   -0.48255   11.55619    1.69105    6.78325   12.56804
     -37.50847    3.15970    9.74927   -6.89921    3.64893   26.18147   13.11368   -2.72739
     -23.77614    5.94030    7.72579  -21.83385   18.49732    1.78061   23.68023  -45.43165
       1.74009   -3.44011    9.15542   -1.66930  -25.45548  -13.91205   -0.21980  -18.12419
     -19.91897   -1.35748    3.06807   48.30933   -0.58058  -15.15326   24.00409    0.15098
       8.22016   -0.24001    0.58329  -26.18313   -9.39110    0.54705  -15.30846    1.82357
       2.95988  -13.02480    0.90354   -3.02826  -10.78822   -0.58739    2.81536  -11.76602
      -4.25291   -1.64252   -7.68722   -2.30821    0.33254   -6.81671    7.77024   -0.61982
      -2.72422    1.26278   -0.23277   -3.77910    4.81512   -0.49940   -2.90012    0.50182
      -0.13078   -2.20683   -0.15281   -0.07123   -3.76645    0.19842   -0.12296   -2.17992
      -2.19522    0.20678   -3.84608   -0.64431    0.09436   -6.48540    3.56584    0.05372
 CYCLE:     4 TIME:   0.016 TIME LEFT:  2.00D  GRAD.:   118.021 HEAT:  215.3902

          HESSIAN HAS  0 NEGATIVE EIGENVALUE(S)
  MIN SEARCH, CORRECT HESSIAN, TRYING PURE NR STEP
 LAMBDA THAT MINIMIZES ALONG ALL MODES =        0.000000000
 PURE NR-STEP HAS LENGTH   0.25405
 LAMBDA THAT MINIMIZES ALONG ALL MODES =      -20.191833119
 P-RFO-STEP   HAS LENGTH   0.23792
 LAMBDA THAT MINIMIZES ALONG ALL MODES =    -6722.879129092
 QA/TRIM-STEP HAS LENGTH   0.01250

  HEAT OF FORMATION        214.71572406153427    
 PARAMETERS       -0.004  -0.000   0.001   1.471  -0.001   0.000   1.533   1.945
   0.000   1.386   2.101   0.755   1.511   1.924   5.452   1.404   2.105   0.508

   1.363   2.065   3.761   1.400   2.071   2.870   1.395   2.119   3.411   1.397

   2.112   0.060   1.392   2.066   3.621   1.404   2.053   3.111   1.402   2.114

   3.089   1.403   2.117   3.133   1.388   2.098   3.168   1.388   2.085   0.006

   1.387   2.087   3.140   1.402   2.094   6.280   1.100   1.894   4.191   1.098

   1.935   2.118   1.096   1.912   3.326   1.097   1.916   1.271   1.092   2.041

   0.218   1.086   2.124   3.163   1.088   2.100   0.020   1.084   2.134   3.125

   1.089   2.105   6.280   1.088   2.105   0.016   1.089   2.098   3.144   1.089

   2.090   3.144   1.089   2.095   3.140   1.090   2.092   3.146
 GRADIENT         -0.000   0.000  -0.000 -15.875   0.000   0.000 -15.905 -15.858
   0.000  -5.238 -40.361  -8.197   5.249 -18.594  15.867  -2.569  28.145   4.270

  20.266 -29.607   8.550   7.964  18.532  -3.989  -9.042  38.944   8.768 -31.602

  14.354   1.474 -13.454  31.446  -0.151   6.281 -28.080  -1.512  -9.466 -37.562

  -0.387 -22.523 -26.463  -1.046 -12.564 -28.421  -0.070  -2.840 -14.130   0.319

  14.754  28.137   0.333 -24.833   7.635   0.324 -14.018   1.844   2.887 -11.942

   0.937  -2.999 -10.089  -0.650   2.816 -11.015  -4.218  -1.663  -7.211  -2.419

   0.389  -6.512   6.803  -0.578  -2.744   0.803  -0.234  -5.615   6.602  -0.479

  -2.627   0.939  -0.133  -2.102   0.376  -0.081  -3.619   0.060  -0.100  -3.896

  -0.183   0.256  -3.591  -0.777   0.082  -4.777   2.276   0.027
       HoF         ACTUAL,  PREDICTED ENERGY CHANGE, RATIO
   214.7157241    -0.6744613          -1.1410625    0.5910818
     STEPSIZE USED IS  0.01250
 CALCULATED STEP
    -0.000434  0.000418 -0.000297  0.001145  0.000871 -0.000434 -0.000564 -0.001003
     0.000121  0.000414 -0.000747 -0.000311 -0.002582 -0.002696 -0.000010 -0.001833
     0.001675 -0.000412 -0.001463 -0.000893 -0.000010 -0.005066 -0.000879  0.000484
     0.003067  0.000935 -0.000874  0.001407 -0.001559 -0.000091 -0.002512  0.002998
    -0.000002 -0.000955  0.000542  0.000411  0.003490  0.000683  0.000209  0.001568
     0.002323  0.000396 -0.000591 -0.003753  0.000274  0.000491 -0.001010  0.000167
    -0.001634  0.001389  0.000086  0.003139  0.001188  0.000090  0.002001 -0.000391
    -0.000392  0.001613 -0.000086  0.000492  0.001328  0.000023 -0.000370  0.001404
     0.000725  0.000285  0.000785  0.000531  0.000009  0.000737 -0.001200  0.000157
     0.000068  0.000040  0.000096  0.000405 -0.000861  0.000142  0.000280 -0.000361
     0.000081  0.000013  0.000236  0.000071  0.000308 -0.000066  0.000080  0.000171
     0.000190  0.000031  0.000324  0.000049  0.000047  0.000744 -0.000608  0.000052
     NEW TRUST RADIUS =  0.01768
*REMARK   3 HET = Not identified; C 17 H 14 N        =    32 atoms res:    1
 PM7 CHARGE=+1 EF NOXYZ PRNT=2 PDBOUT COMPFG GRAPHF
 5,6-dihydroisoquinolino[2,1-b]isoquinolin-7-ium

  N(HETATM    1  N   HET A   1)  -0.00382856 +1   -0.0003735 +1    0.0005340 +1
  C(HETATM    2  C1  HET A   1)   1.47148847 +1   -0.0478539 +1    0.0080548 +1     1     0     0
  C(HETATM    3  C2  HET A   1)   1.53250370 +1  111.4664837 +1    0.0271325 +1     2     1     0
  C(HETATM    4  C3  HET A   1)   1.38565612 +1  120.3601299 +1   43.2733538 +1     1     2     3
  C(HETATM    5  C4  HET A   1)   1.51096208 +1  110.2363969 +1  -47.6352332 +1     3     2     1
  C(HETATM    6  C5  HET A   1)   1.40399403 +1  120.5886693 +1   29.1288109 +1     5     3     2
  C(HETATM    7  C6  HET A   1)   1.36271537 +1  118.3187788 +1 -144.5166796 +1     1     2     3
  C(HETATM    8  C7  HET A   1)   1.40017493 +1  118.6854241 +1  164.4383333 +1     4     1     2
  C(HETATM    9  C8  HET A   1)   1.39482337 +1  121.4379634 +1 -164.5715127 +1     7     1     2
  C(HETATM   10  C9  HET A   1)   1.39703671 +1  121.0093193 +1    3.4361051 +1     8     4     1
  C(HETATM   11  C10 HET A   1)   1.39224591 +1  118.3499727 +1 -152.5435085 +1     5     3     2
  C(HETATM   12  C11 HET A   1)   1.40390651 +1  117.6138396 +1  178.2599553 +1     6     5     3
  C(HETATM   13  C12 HET A   1)   1.40220403 +1  121.1314584 +1  176.9921372 +1     9     7     1
  C(HETATM   14  C13 HET A   1)   1.40264086 +1  121.2672479 +1  179.5313743 +1    10     8     4
  C(HETATM   15  C14 HET A   1)   1.38797205 +1  120.2265857 +1 -178.4631576 +1    11     5     3
  C(HETATM   16  C15 HET A   1)   1.38803221 +1  119.4515403 +1    0.3172440 +1    15    11     5
  C(HETATM   17  C16 HET A   1)   1.38659973 +1  119.5900943 +1  179.9116771 +1    13     9     7
  C(HETATM   18  C17 HET A   1)   1.40189572 +1  119.9552980 +1   -0.1894989 +1    17    13     9
  H(HETATM   19 1H1  HET A   1)   1.10002264 +1  108.5444174 +1 -119.8632855 +1     2     1     3
  H(HETATM   20 2H1  HET A   1)   1.09847539 +1  110.8616244 +1  121.3401830 +1     2     1     3
  H(HETATM   21 1H2  HET A   1)   1.09639558 +1  109.5502834 +1 -169.4343921 +1     3     2     1
  H(HETATM   22 2H2  HET A   1)   1.09654829 +1  109.7690255 +1   72.8236605 +1     3     2     1
  H(HETATM   23  H6  HET A   1)   1.09208609 +1  116.9484326 +1   12.4968317 +1     7     1     2
  H(HETATM   24  H7  HET A   1)   1.08568620 +1  121.6952849 +1 -178.7450357 +1     8     4     1
  H(HETATM   25  H10 HET A   1)   1.08831807 +1  120.3383451 +1    1.1673488 +1    11     5     3
  H(HETATM   26  H11 HET A   1)   1.08438805 +1  122.2612741 +1  179.0635272 +1    12     6     5
  H(HETATM   27  H12 HET A   1)   1.08862737 +1  120.5968089 +1   -0.2081850 +1    13     9     7
  H(HETATM   28  H13 HET A   1)   1.08826985 +1  120.6069013 +1    0.9169054 +1    14    10     8
  H(HETATM   29  H14 HET A   1)   1.08873963 +1  120.2250926 +1 -179.8850903 +1    15    11     5
  H(HETATM   30  H15 HET A   1)   1.08853425 +1  119.7344824 +1 -179.8810009 +1    16    15    11
  H(HETATM   31  H16 HET A   1)   1.08876165 +1  120.0344752 +1  179.9098643 +1    17    13     9
  H(HETATM   32  H17 HET A   1)   1.08952260 +1  119.8591877 +1 -179.7676610 +1    18    17    13

 XPARAM 
  1  1   -0.0038  1  2   -0.0004  1  3    0.0005  2  1    1.4715  2  2   -0.0008
  2  3    0.0001  3  1    1.5325  3  2    1.9455  3  3    0.0005  4  1    1.3857
  4  2    2.1007  4  3    0.7553  5  1    1.5110  5  2    1.9240  5  3    5.4518
  6  1    1.4040  6  2    2.1047  6  3    0.5084  7  1    1.3627  7  2    2.0651
  7  3    3.7609  8  1    1.4002  8  2    2.0715  8  3    2.8700  9  1    1.3948
  9  2    2.1195  9  3    3.4109 10  1    1.3970 10  2    2.1120 10  3    0.0600
 11  1    1.3922 11  2    2.0656 11  3    3.6208 12  1    1.4039 12  2    2.0527
 12  3    3.1112 13  1    1.4022 13  2    2.1141 13  3    3.0891 14  1    1.4026
 14  2    2.1165 14  3    3.1334 15  1    1.3880 15  2    2.0983 15  3    3.1684
 16  1    1.3880 16  2    2.0848 16  3    0.0055 17  1    1.3866 17  2    2.0872
 17  3    3.1401 18  1    1.4019 18  2    2.0936 18  3    6.2799 19  1    1.1000
 19  2    1.8945 19  3    4.1912 20  1    1.0985 20  2    1.9349 20  3    2.1178
 21  1    1.0964 21  2    1.9120 21  3    3.3260 22  1    1.0965 22  2    1.9158
 22  3    1.2710 23  1    1.0921 23  2    2.0411 23  3    0.2181 24  1    1.0857
 24  2    2.1240 24  3    3.1635 25  1    1.0883 25  2    2.1003 25  3    0.0204
 26  1    1.0844 26  2    2.1339 26  3    3.1252 27  1    1.0886 27  2    2.1048
 27  3    6.2796 28  1    1.0883 28  2    2.1050 28  3    0.0160 29  1    1.0887
 29  2    2.0983 29  3    3.1436 30  1    1.0885 30  2    2.0898 30  3    3.1437
 31  1    1.0888 31  2    2.0950 31  3    3.1400 32  1    1.0895 32  2    2.0919
 32  3    3.1456
 grad
      -0.00000    0.00000   -0.00000  -15.87470    0.00000    0.00000  -15.90522  -15.85839
       0.00000   -5.23842  -40.36050   -8.19735    5.24878  -18.59357   15.86749   -2.56877
      28.14462    4.26968   20.26622  -29.60703    8.54989    7.96407   18.53159   -3.98857
      -9.04172   38.94375    8.76785  -31.60237   14.35403    1.47354  -13.45393   31.44608
      -0.15057    6.28107  -28.08045   -1.51208   -9.46553  -37.56227   -0.38685  -22.52304
     -26.46258   -1.04581  -12.56386  -28.42104   -0.07043   -2.83998  -14.13030    0.31885
      14.75350   28.13661    0.33286  -24.83298    7.63467    0.32369  -14.01750    1.84390
       2.88732  -11.94247    0.93658   -2.99853  -10.08890   -0.64970    2.81573  -11.01532
      -4.21850   -1.66333   -7.21073   -2.41872    0.38919   -6.51216    6.80316   -0.57789
      -2.74434    0.80297   -0.23361   -5.61461    6.60203   -0.47943   -2.62750    0.93907
      -0.13306   -2.10163    0.37638   -0.08135   -3.61910    0.05991   -0.10011   -3.89629
      -0.18262    0.25633   -3.59053   -0.77669    0.08212   -4.77700    2.27590    0.02714
 CYCLE:     5 TIME:   0.008 TIME LEFT:  2.00D  GRAD.:   130.692 HEAT:  214.7157

          HESSIAN HAS  0 NEGATIVE EIGENVALUE(S)
  MIN SEARCH, CORRECT HESSIAN, TRYING PURE NR STEP
 LAMBDA THAT MINIMIZES ALONG ALL MODES =        0.000000000
 PURE NR-STEP HAS LENGTH   0.45002
 LAMBDA THAT MINIMIZES ALONG ALL MODES =      -23.030679393
 P-RFO-STEP   HAS LENGTH   0.38252
 LAMBDA THAT MINIMIZES ALONG ALL MODES =    -3301.065871989
 QA/TRIM-STEP HAS LENGTH   0.01768

  HEAT OF FORMATION        213.75878443289548    
 PARAMETERS       -0.006  -0.001   0.001   1.473  -0.001   0.000   1.534   1.948
   0.001   1.387   2.100   0.755   1.508   1.927   5.448   1.401   2.104   0.508

   1.359   2.061   3.761   1.395   2.073   2.871   1.397   2.118   3.409   1.400

   2.111   0.060   1.391   2.064   3.621   1.402   2.056   3.112   1.406   2.117

   3.090   1.406   2.120   3.134   1.388   2.098   3.169   1.388   2.085   0.006

   1.382   2.085   3.140   1.407   2.093   6.280   1.103   1.894   4.190   1.101

   1.934   2.119   1.099   1.912   3.325   1.099   1.917   1.272   1.093   2.042

   0.218   1.087   2.122   3.164   1.088   2.100   0.021   1.085   2.132   3.126

   1.089   2.104   6.280   1.088   2.105   0.016   1.089   2.098   3.144   1.089

   2.090   3.144   1.089   2.095   3.140   1.090   2.091   3.146
 GRADIENT         -0.000   0.000  -0.000  -6.510   0.000   0.000  -1.644  13.081
   0.000  -3.867  -8.020  -0.744   7.977  10.315   0.382  -7.794  18.463   3.194

   9.092 -16.110   4.989  15.707  16.324  -3.302 -17.322  10.134   7.645 -19.964

  14.148   1.790  -7.046   7.783   0.617   0.991 -15.713  -1.063 -16.642  -9.809

  -0.293 -11.806 -13.549  -1.104  -9.112  -7.015   0.718  -7.261  -3.982   0.892

   3.111  -2.167   0.352 -16.187  -9.776   0.392 -11.835   1.884   2.710 -10.134

   0.940  -2.854  -8.978  -0.112   3.222  -9.533  -3.860  -1.601  -6.582  -2.973

   0.464  -5.853   5.873  -0.533  -2.760   0.574  -0.234  -4.457   5.250  -0.403

  -2.335   1.250  -0.131  -2.348   0.989   0.011  -3.298   0.018  -0.064  -3.185

  -0.673   0.325  -3.285  -1.487   0.082  -5.025   3.769   0.066
       HoF         ACTUAL,  PREDICTED ENERGY CHANGE, RATIO
   213.7587844    -0.9569396          -1.1643779    0.8218463
     STEPSIZE USED IS  0.01768
 CALCULATED STEP
    -0.002423 -0.000437  0.000241  0.001754 -0.000348 -0.000076  0.001592  0.002909
     0.000329  0.001319 -0.000802  0.000103 -0.002932  0.002530 -0.003560 -0.003147
    -0.001137 -0.000718 -0.003881 -0.003715  0.000323 -0.005152  0.001751  0.000963
     0.002005 -0.001366 -0.001672  0.003152 -0.000746 -0.000081 -0.001738 -0.001996
     0.000229 -0.002306  0.003009  0.000832  0.003750  0.003131  0.000476  0.003646
     0.003391  0.000757  0.000050 -0.000809  0.000456 -0.000329 -0.000277  0.000307
    -0.004619 -0.002495  0.000291  0.004740 -0.000562  0.000278  0.003277 -0.000844
    -0.000731  0.002621 -0.000480  0.000998  0.002167 -0.000109 -0.000703  0.002310
     0.000997  0.000603  0.001253  0.000548  0.000018  0.001213 -0.002242  0.000306
     0.000056 -0.000373  0.000199  0.000777 -0.001916  0.000274  0.000367 -0.000666
     0.000170  0.000029 -0.000320  0.000154  0.000457 -0.000310  0.000162  0.000347
    -0.000027  0.000060  0.000461 -0.000088  0.000106  0.000930 -0.001061  0.000120
     NEW TRUST RADIUS =  0.02500
*REMARK   3 HET = Not identified; C 17 H 14 N        =    32 atoms res:    1
 PM7 CHARGE=+1 EF NOXYZ PRNT=2 PDBOUT COMPFG GRAPHF
 5,6-dihydroisoquinolino[2,1-b]isoquinolin-7-ium

  N(HETATM    1  N   HET A   1)  -0.00625113 +1   -0.0008102 +1    0.0007751 +1
  C(HETATM    2  C1  HET A   1)   1.47324246 +1   -0.0677824 +1    0.0036920 +1     1     0     0
  C(HETATM    3  C2  HET A   1)   1.53409580 +1  111.6331289 +1    0.0459897 +1     2     1     0
  C(HETATM    4  C3  HET A   1)   1.38697477 +1  120.3141963 +1   43.2792639 +1     1     2     3
  C(HETATM    5  C4  HET A   1)   1.50803013 +1  110.3813303 +1  -47.8392333 +1     3     2     1
  C(HETATM    6  C5  HET A   1)   1.40084678 +1  120.5234965 +1   29.0876944 +1     5     3     2
  C(HETATM    7  C6  HET A   1)   1.35883474 +1  118.1059102 +1 -144.4981938 +1     1     2     3
  C(HETATM    8  C7  HET A   1)   1.39502326 +1  118.7857394 +1  164.4934912 +1     4     1     2
  C(HETATM    9  C8  HET A   1)   1.39682827 +1  121.3596961 +1 -164.6673101 +1     7     1     2
  C(HETATM   10  C9  HET A   1)   1.40018917 +1  120.9665890 +1    3.4314771 +1     8     4     1
  C(HETATM   11  C10 HET A   1)   1.39050764 +1  118.2355995 +1 -152.5303873 +1     5     3     2
  C(HETATM   12  C11 HET A   1)   1.40160082 +1  117.7862387 +1  178.3076211 +1     6     5     3
  C(HETATM   13  C12 HET A   1)   1.40595380 +1  121.3108364 +1  177.0194183 +1     9     7     1
  C(HETATM   14  C13 HET A   1)   1.40628651 +1  121.4615654 +1  179.5747436 +1    10     8     4
  C(HETATM   15  C14 HET A   1)   1.38802225 +1  120.1802561 +1 -178.4370060 +1    11     5     3
  C(HETATM   16  C15 HET A   1)   1.38770284 +1  119.4356905 +1    0.3348213 +1    15    11     5
  C(HETATM   17  C16 HET A   1)   1.38198113 +1  119.4471401 +1  179.9283621 +1    13     9     7
  C(HETATM   18  C17 HET A   1)   1.40663561 +1  119.9231000 +1   -0.1735743 +1    17    13     9
  H(HETATM   19 1H1  HET A   1)   1.10329922 +1  108.4960456 +1 -119.9051898 +1     2     1     3
  H(HETATM   20 2H1  HET A   1)   1.10109677 +1  110.8341495 +1  121.3973379 +1     2     1     3
  H(HETATM   21 1H2  HET A   1)   1.09856305 +1  109.5440364 +1 -169.4746466 +1     3     2     1
  H(HETATM   22 2H2  HET A   1)   1.09885857 +1  109.8261634 +1   72.8582289 +1     3     2     1
  H(HETATM   23  H6  HET A   1)   1.09333865 +1  116.9798044 +1   12.4978820 +1     7     1     2
  H(HETATM   24  H7  HET A   1)   1.08689943 +1  121.5668189 +1 -178.7275307 +1     8     4     1
  H(HETATM   25  H10 HET A   1)   1.08837388 +1  120.3169529 +1    1.1787395 +1    11     5     3
  H(HETATM   26  H11 HET A   1)   1.08516519 +1  122.1515217 +1  179.0792360 +1    12     6     5
  H(HETATM   27  H12 HET A   1)   1.08899410 +1  120.5586410 +1   -0.1984652 +1    13     9     7
  H(HETATM   28  H13 HET A   1)   1.08829888 +1  120.5885878 +1    0.9257295 +1    14    10     8
  H(HETATM   29  H14 HET A   1)   1.08919691 +1  120.2073557 +1 -179.8758157 +1    15    11     5
  H(HETATM   30  H15 HET A   1)   1.08888128 +1  119.7329204 +1 -179.8775726 +1    16    15    11
  H(HETATM   31  H16 HET A   1)   1.08922279 +1  120.0294324 +1  179.9159227 +1    17    13     9
  H(HETATM   32  H17 HET A   1)   1.09045286 +1  119.7984178 +1 -179.7607660 +1    18    17    13

 XPARAM 
  1  1   -0.0063  1  2   -0.0008  1  3    0.0008  2  1    1.4732  2  2   -0.0012
  2  3    0.0001  3  1    1.5341  3  2    1.9484  3  3    0.0008  4  1    1.3870
  4  2    2.0999  4  3    0.7554  5  1    1.5080  5  2    1.9265  5  3    5.4482
  6  1    1.4008  6  2    2.1035  6  3    0.5077  7  1    1.3588  7  2    2.0613
  7  3    3.7612  8  1    1.3950  8  2    2.0732  8  3    2.8710  9  1    1.3968
  9  2    2.1181  9  3    3.4092 10  1    1.4002 10  2    2.1113 10  3    0.0599
 11  1    1.3905 11  2    2.0636 11  3    3.6210 12  1    1.4016 12  2    2.0558
 12  3    3.1121 13  1    1.4060 13  2    2.1173 13  3    3.0896 14  1    1.4063
 14  2    2.1199 14  3    3.1342 15  1    1.3880 15  2    2.0975 15  3    3.1689
 16  1    1.3877 16  2    2.0845 16  3    0.0058 17  1    1.3820 17  2    2.0847
 17  3    3.1403 18  1    1.4066 18  2    2.0931 18  3    6.2802 19  1    1.1033
 19  2    1.8936 19  3    4.1904 20  1    1.1011 20  2    1.9344 20  3    2.1188
 21  1    1.0986 21  2    1.9119 21  3    3.3253 22  1    1.0989 22  2    1.9168
 22  3    1.2716 23  1    1.0933 23  2    2.0417 23  3    0.2181 24  1    1.0869
 24  2    2.1217 24  3    3.1638 25  1    1.0884 25  2    2.0999 25  3    0.0206
 26  1    1.0852 26  2    2.1319 26  3    3.1255 27  1    1.0890 27  2    2.1041
 27  3    6.2797 28  1    1.0883 28  2    2.1047 28  3    0.0162 29  1    1.0892
 29  2    2.0980 29  3    3.1438 30  1    1.0889 30  2    2.0897 30  3    3.1437
 31  1    1.0892 31  2    2.0949 31  3    3.1401 32  1    1.0905 32  2    2.0909
 32  3    3.1458
 grad
      -0.00000    0.00000   -0.00000   -6.51019    0.00000    0.00000   -1.64407   13.08102
       0.00000   -3.86716   -8.01987   -0.74412    7.97724   10.31512    0.38246   -7.79360
      18.46284    3.19410    9.09204  -16.10956    4.98896   15.70650   16.32404   -3.30209
     -17.32216   10.13395    7.64470  -19.96393   14.14811    1.79027   -7.04558    7.78343
       0.61709    0.99117  -15.71324   -1.06350  -16.64231   -9.80921   -0.29312  -11.80649
     -13.54861   -1.10431   -9.11212   -7.01453    0.71835   -7.26061   -3.98216    0.89224
       3.11126   -2.16725    0.35194  -16.18680   -9.77589    0.39175  -11.83515    1.88353
       2.71019  -10.13420    0.94027   -2.85401   -8.97767   -0.11186    3.22164   -9.53260
      -3.86012   -1.60072   -6.58186   -2.97273    0.46417   -5.85309    5.87274   -0.53273
      -2.75977    0.57392   -0.23388   -4.45744    5.24961   -0.40276   -2.33461    1.25008
      -0.13122   -2.34846    0.98905    0.01119   -3.29779    0.01774   -0.06358   -3.18466
      -0.67317    0.32454   -3.28495   -1.48734    0.08151   -5.02461    3.76948    0.06575
 CYCLE:     6 TIME:   0.016 TIME LEFT:  2.00D  GRAD.:    72.044 HEAT:  213.7588

          HESSIAN HAS  0 NEGATIVE EIGENVALUE(S)
  MIN SEARCH, CORRECT HESSIAN, TRYING PURE NR STEP
 LAMBDA THAT MINIMIZES ALONG ALL MODES =        0.000000000
 PURE NR-STEP HAS LENGTH   0.08843
 LAMBDA THAT MINIMIZES ALONG ALL MODES =       -3.660966262
 P-RFO-STEP   HAS LENGTH   0.08738
 LAMBDA THAT MINIMIZES ALONG ALL MODES =    -1164.614268833
 QA/TRIM-STEP HAS LENGTH   0.02500

  HEAT OF FORMATION        213.36545280312566    
 PARAMETERS       -0.009  -0.002   0.000   1.475   0.000  -0.001   1.533   1.947
   0.001   1.386   2.099   0.755   1.504   1.923   5.446   1.400   2.101   0.507

   1.352   2.061   3.761   1.386   2.071   2.874   1.401   2.116   3.405   1.405

   2.111   0.059   1.391   2.062   3.621   1.399   2.061   3.114   1.411   2.119

   3.091   1.409   2.124   3.136   1.390   2.097   3.169   1.387   2.087   0.006

   1.377   2.087   3.141   1.412   2.096   6.281   1.109   1.892   4.189   1.105

   1.934   2.121   1.102   1.911   3.323   1.103   1.919   1.273   1.096   2.044

   0.218   1.089   2.118   3.165   1.089   2.100   0.021   1.086   2.128   3.126

   1.090   2.102   6.280   1.088   2.104   0.016   1.090   2.098   3.144   1.090

   2.090   3.144   1.090   2.096   3.140   1.092   2.088   3.146
 GRADIENT         -0.000   0.000  -0.000 -11.450   0.000   0.000 -15.605 -19.876
   0.000 -35.990 107.370  23.295  -4.516 -27.949  17.131   9.419 -67.618  -0.298

 -27.927 116.287 -24.010  -2.210-100.518   3.186 -10.996 -95.214   1.976  12.833

 -54.630   1.976  20.084 -55.516   2.354 -12.912  21.859  -0.649 -33.533  45.374

  -0.468  -6.528  22.904  -1.072   2.760  52.676   1.841 -17.101  25.211   1.689

  -5.233 -45.428  -0.252  -0.372 -25.183   0.026  -8.484   1.703   2.384  -7.399

   0.820  -2.632  -6.901  -0.130   3.216  -7.235  -3.614  -1.412  -5.596  -3.620

   0.649  -4.823   3.826  -0.408  -2.486   0.382  -0.191  -1.995   1.970  -0.238

  -1.963   1.715  -0.155  -4.279   3.931   0.048  -2.778   0.142   0.006  -1.347

  -2.204   0.361  -3.003  -1.585   0.055  -3.824   3.009   0.053
       HoF         ACTUAL,  PREDICTED ENERGY CHANGE, RATIO
   213.3654528    -0.3933316          -1.0534912    0.3733601
     STEPSIZE USED IS  0.02500
 CALCULATED STEP
    -0.002433 -0.001044 -0.000292  0.001983  0.001493 -0.001217 -0.001541 -0.001830
     0.000667 -0.001004 -0.000954 -0.000404 -0.004333 -0.003100 -0.002530 -0.000870
    -0.002105 -0.000850 -0.007102 -0.000453 -0.000325 -0.008682 -0.001882  0.002888
     0.003884 -0.001713 -0.004403  0.005011 -0.000641 -0.000450  0.000577 -0.001972
     0.000140 -0.002752  0.005737  0.001544  0.005155  0.001462  0.001162  0.003157
     0.004061  0.001735  0.001696 -0.000731  0.000034 -0.000435  0.002105 -0.000022
    -0.005389  0.002338  0.000750  0.005197  0.002907  0.000665  0.005442 -0.002044
    -0.001779  0.004263 -0.000913  0.002441  0.003916 -0.000518 -0.002307  0.003923
     0.002503  0.001507  0.002181  0.002331 -0.000092  0.002178 -0.004032  0.000710
     0.000140 -0.000067  0.000499  0.001331 -0.003624  0.000599  0.000627 -0.002275
     0.000421  0.000079 -0.000938  0.000299  0.000799 -0.000512  0.000352  0.000695
     0.000036  0.000037  0.000766  0.000616  0.000259  0.001535 -0.002970  0.000269
     NEW TRUST RADIUS =  0.02500
*REMARK   3 HET = Not identified; C 17 H 14 N        =    32 atoms res:    1
 PM7 CHARGE=+1 EF NOXYZ PRNT=2 PDBOUT COMPFG GRAPHF
 5,6-dihydroisoquinolino[2,1-b]isoquinolin-7-ium

  N(HETATM    1  N   HET A   1)  -0.00868413 +1   -0.0018543 +1    0.0004835 +1
  C(HETATM    2  C1  HET A   1)   1.47522586 +1    0.0177344 +1   -0.0660382 +1     1     0     0
  C(HETATM    3  C2  HET A   1)   1.53255453 +1  111.5282903 +1    0.0842216 +1     2     1     0
  C(HETATM    4  C3  HET A   1)   1.38597030 +1  120.2595453 +1   43.2560923 +1     1     2     3
  C(HETATM    5  C4  HET A   1)   1.50369751 +1  110.2036973 +1  -47.9841939 +1     3     2     1
  C(HETATM    6  C5  HET A   1)   1.39997689 +1  120.4028748 +1   29.0389906 +1     5     3     2
  C(HETATM    7  C6  HET A   1)   1.35173227 +1  118.0799835 +1 -144.5168037 +1     1     2     3
  C(HETATM    8  C7  HET A   1)   1.38634151 +1  118.6779323 +1  164.6589387 +1     4     1     2
  C(HETATM    9  C8  HET A   1)   1.40071241 +1  121.2615203 +1 -164.9195987 +1     7     1     2
  C(HETATM   10  C9  HET A   1)   1.40519999 +1  120.9298432 +1    3.4056857 +1     8     4     1
  C(HETATM   11  C10 HET A   1)   1.39108470 +1  118.1226341 +1 -152.5223376 +1     5     3     2
  C(HETATM   12  C11 HET A   1)   1.39884897 +1  118.1149591 +1  178.3961103 +1     6     5     3
  C(HETATM   13  C12 HET A   1)   1.41110860 +1  121.3945764 +1  177.0859958 +1     9     7     1
  C(HETATM   14  C13 HET A   1)   1.40944396 +1  121.6942522 +1  179.6741568 +1    10     8     4
  C(HETATM   15  C14 HET A   1)   1.38971823 +1  120.1383687 +1 -178.4350544 +1    11     5     3
  C(HETATM   16  C15 HET A   1)   1.38726812 +1  119.5562912 +1    0.3335596 +1    15    11     5
  C(HETATM   17  C16 HET A   1)   1.37659198 +1  119.5811233 +1  179.9713247 +1    13     9     7
  C(HETATM   18  C17 HET A   1)   1.41183250 +1  120.0896321 +1   -0.1354985 +1    17    13     9
  H(HETATM   19 1H1  HET A   1)   1.10874088 +1  108.3789337 +1 -120.0071104 +1     2     1     3
  H(HETATM   20 2H1  HET A   1)   1.10536013 +1  110.7818574 +1  121.5372058 +1     2     1     3
  H(HETATM   21 1H2  HET A   1)   1.10247873 +1  109.5143771 +1 -169.6068174 +1     3     2     1
  H(HETATM   22 2H2  HET A   1)   1.10278111 +1  109.9695988 +1   72.9445945 +1     3     2     1
  H(HETATM   23  H6  HET A   1)   1.09551995 +1  117.1133454 +1   12.4925831 +1     7     1     2
  H(HETATM   24  H7  HET A   1)   1.08907786 +1  121.3358172 +1 -178.6868510 +1     8     4     1
  H(HETATM   25  H10 HET A   1)   1.08851353 +1  120.3131083 +1    1.2073175 +1    11     5     3
  H(HETATM   26  H11 HET A   1)   1.08649614 +1  121.9438627 +1  179.1135550 +1    12     6     5
  H(HETATM   27  H12 HET A   1)   1.08962145 +1  120.4283104 +1   -0.1743249 +1    13     9     7
  H(HETATM   28  H13 HET A   1)   1.08837780 +1  120.5348341 +1    0.9428627 +1    14    10     8
  H(HETATM   29  H14 HET A   1)   1.08999627 +1  120.1780194 +1 -179.8556631 +1    15    11     5
  H(HETATM   30  H15 HET A   1)   1.08957676 +1  119.7349715 +1 -179.8754555 +1    16    15    11
  H(HETATM   31  H16 HET A   1)   1.08998891 +1  120.0647060 +1  179.9307725 +1    17    13     9
  H(HETATM   32  H17 HET A   1)   1.09198760 +1  119.6282368 +1 -179.7453756 +1    18    17    13

 XPARAM 
  1  1   -0.0087  1  2   -0.0019  1  3    0.0005  2  1    1.4752  2  2    0.0003
  2  3   -0.0012  3  1    1.5326  3  2    1.9465  3  3    0.0015  4  1    1.3860
  4  2    2.0989  4  3    0.7550  5  1    1.5037  5  2    1.9234  5  3    5.4457
  6  1    1.4000  6  2    2.1014  6  3    0.5068  7  1    1.3517  7  2    2.0609
  7  3    3.7609  8  1    1.3863  8  2    2.0713  8  3    2.8738  9  1    1.4007
  9  2    2.1164  9  3    3.4048 10  1    1.4052 10  2    2.1106 10  3    0.0594
 11  1    1.3911 11  2    2.0616 11  3    3.6212 12  1    1.3988 12  2    2.0615
 12  3    3.1136 13  1    1.4111 13  2    2.1187 13  3    3.0907 14  1    1.4094
 14  2    2.1240 14  3    3.1359 15  1    1.3897 15  2    2.0968 15  3    3.1689
 16  1    1.3873 16  2    2.0867 16  3    0.0058 17  1    1.3766 17  2    2.0871
 17  3    3.1411 18  1    1.4118 18  2    2.0960 18  3    6.2808 19  1    1.1087
 19  2    1.8916 19  3    4.1887 20  1    1.1054 20  2    1.9335 20  3    2.1212
 21  1    1.1025 21  2    1.9114 21  3    3.3230 22  1    1.1028 22  2    1.9193
 22  3    1.2731 23  1    1.0955 23  2    2.0440 23  3    0.2180 24  1    1.0891
 24  2    2.1177 24  3    3.1645 25  1    1.0885 25  2    2.0999 25  3    0.0211
 26  1    1.0865 26  2    2.1283 26  3    3.1261 27  1    1.0896 27  2    2.1019
 27  3    6.2801 28  1    1.0884 28  2    2.1037 28  3    0.0165 29  1    1.0900
 29  2    2.0975 29  3    3.1441 30  1    1.0896 30  2    2.0898 30  3    3.1438
 31  1    1.0900 31  2    2.0955 31  3    3.1404 32  1    1.0920 32  2    2.0879
 32  3    3.1460
 grad
      -0.00000    0.00000   -0.00000  -11.45004    0.00000    0.00000  -15.60544  -19.87599
       0.00000  -35.98980  107.37044   23.29540   -4.51550  -27.94902   17.13119    9.41928
     -67.61763   -0.29784  -27.92729  116.28674  -24.01037   -2.21024 -100.51821    3.18602
     -10.99585  -95.21408    1.97573   12.83347  -54.63031    1.97631   20.08407  -55.51593
       2.35443  -12.91210   21.85908   -0.64942  -33.53296   45.37436   -0.46818   -6.52806
      22.90395   -1.07187    2.76035   52.67636    1.84050  -17.10138   25.21107    1.68934
      -5.23327  -45.42838   -0.25184   -0.37196  -25.18301    0.02644   -8.48439    1.70335
       2.38414   -7.39880    0.82017   -2.63189   -6.90085   -0.13041    3.21610   -7.23550
      -3.61449   -1.41165   -5.59602   -3.62014    0.64930   -4.82282    3.82594   -0.40834
      -2.48643    0.38230   -0.19132   -1.99530    1.97004   -0.23774   -1.96309    1.71504
      -0.15486   -4.27880    3.93093    0.04820   -2.77817    0.14167    0.00560   -1.34663
      -2.20393    0.36070   -3.00310   -1.58484    0.05470   -3.82439    3.00861    0.05303
 CYCLE:     7 TIME:   0.016 TIME LEFT:  2.00D  GRAD.:   268.364 HEAT:  213.3655

          HESSIAN HAS  0 NEGATIVE EIGENVALUE(S)
  MIN SEARCH, CORRECT HESSIAN, TRYING PURE NR STEP
 LAMBDA THAT MINIMIZES ALONG ALL MODES =        0.000000000
 PURE NR-STEP HAS LENGTH   0.15231
 LAMBDA THAT MINIMIZES ALONG ALL MODES =       -6.356338833
 P-RFO-STEP   HAS LENGTH   0.14780
[...]

  N(HETATM    1  N   HET A   1)  -0.09014373 +1   -0.1055543 +1   -0.0671166 +1
  C(HETATM    2  C1  HET A   1)   1.48480332 +1    4.7711435 +1   -3.1931449 +1     1     0     0
  C(HETATM    3  C2  HET A   1)   1.53193277 +1  110.0490756 +1    9.7847970 +1     2     1     0
  C(HETATM    4  C3  HET A   1)   1.39695280 +1  118.7953196 +1   39.6258532 +1     1     2     3
  C(HETATM    5  C4  HET A   1)   1.49496126 +1  109.2233176 +1  -56.3516414 +1     3     2     1
  C(HETATM    6  C5  HET A   1)   1.40449617 +1  118.3226316 +1   35.9707319 +1     5     3     2
  C(HETATM    7  C6  HET A   1)   1.34362351 +1  119.6525247 +1 -139.9202185 +1     1     2     3
  C(HETATM    8  C7  HET A   1)   1.38062837 +1  118.7907163 +1 -178.2913647 +1     4     1     2
  C(HETATM    9  C8  HET A   1)   1.41187554 +1  121.2505100 +1  179.4349732 +1     7     1     2
  C(HETATM   10  C9  HET A   1)   1.41475155 +1  121.4719446 +1   -1.4900058 +1     8     4     1
  C(HETATM   11  C10 HET A   1)   1.39110353 +1  121.3594007 +1 -143.4621707 +1     5     3     2
  C(HETATM   12  C11 HET A   1)   1.39881282 +1  119.5125585 +1 -176.8663251 +1     6     5     3
  C(HETATM   13  C12 HET A   1)   1.42334168 +1  121.5652461 +1  179.5412660 +1     9     7     1
  C(HETATM   14  C13 HET A   1)   1.41957616 +1  122.4798073 +1 -179.4150857 +1    10     8     4
  C(HETATM   15  C14 HET A   1)   1.39486848 +1  119.7476099 +1  178.0300023 +1    11     5     3
  C(HETATM   16  C15 HET A   1)   1.39425947 +1  120.2003951 +1   -0.4715392 +1    15    11     5
  C(HETATM   17  C16 HET A   1)   1.37010560 +1  119.7586861 +1  179.4724423 +1    13     9     7
  C(HETATM   18  C17 HET A   1)   1.42150315 +1  120.5259964 +1    0.0385172 +1    17    13     9
  H(HETATM   19 1H1  HET A   1)   1.12194296 +1  108.1452860 +1 -120.5348868 +1     2     1     3
  H(HETATM   20 2H1  HET A   1)   1.11515965 +1  110.3759043 +1  122.5317291 +1     2     1     3
  H(HETATM   21 1H2  HET A   1)   1.11457809 +1  109.5168216 +1 -178.9799117 +1     3     2     1
  H(HETATM   22 2H2  HET A   1)   1.11448505 +1  111.5740591 +1   65.6767376 +1     3     2     1
  H(HETATM   23  H6  HET A   1)   1.10425277 +1  118.6828445 +1   -0.5680833 +1     7     1     2
  H(HETATM   24  H7  HET A   1)   1.09760759 +1  119.7286285 +1  177.9485275 +1     8     4     1
  H(HETATM   25  H10 HET A   1)   1.09136479 +1  120.3872367 +1   -1.7355418 +1    11     5     3
  H(HETATM   26  H11 HET A   1)   1.09138383 +1  120.5697841 +1  177.5498422 +1    12     6     5
  H(HETATM   27  H12 HET A   1)   1.09232516 +1  119.2795010 +1   -0.4928076 +1    13     9     7
  H(HETATM   28  H13 HET A   1)   1.09291728 +1  119.0945560 +1   -0.0611551 +1    14    10     8
  H(HETATM   29  H14 HET A   1)   1.09400299 +1  119.8081309 +1  179.9503938 +1    15    11     5
  H(HETATM   30  H15 HET A   1)   1.09288716 +1  119.9527933 +1 -178.8713882 +1    16    15    11
  H(HETATM   31  H16 HET A   1)   1.09503202 +1  120.7384713 +1 -179.9545755 +1    17    13     9
  H(HETATM   32  H17 HET A   1)   1.09612907 +1  118.5883249 +1 -179.9690827 +1    18    17    13

 XPARAM 
  1  1   -0.0901  1  2   -0.1056  1  3   -0.0671  2  1    1.4848  2  2    0.0833
  2  3   -0.0557  3  1    1.5319  3  2    1.9207  3  3    0.1708  4  1    1.3970
  4  2    2.0734  4  3    0.6916  5  1    1.4950  5  2    1.9063  5  3    5.2997
  6  1    1.4045  6  2    2.0651  6  3    0.6278  7  1    1.3436  7  2    2.0883
  7  3    3.8411  8  1    1.3806  8  2    2.0733  8  3    3.1714  9  1    1.4119
  9  2    2.1162  9  3    3.1317 10  1    1.4148 10  2    2.1201 10  3   -0.0260
 11  1    1.3911 11  2    2.1181 11  3    3.7793 12  1    1.3988 12  2    2.0859
 12  3    3.1963 13  1    1.4233 13  2    2.1217 13  3    3.1336 14  1    1.4196
 14  2    2.1377 14  3    3.1518 15  1    1.3949 15  2    2.0900 15  3    3.1072
 16  1    1.3943 16  2    2.0979 16  3   -0.0082 17  1    1.3701 17  2    2.0902
 17  3    3.1324 18  1    1.4215 18  2    2.1036 18  3    6.2839 19  1    1.1219
 19  2    1.8875 19  3    4.1795 20  1    1.1152 20  2    1.9264 20  3    2.1386
 21  1    1.1146 21  2    1.9114 21  3    3.1594 22  1    1.1145 22  2    1.9473
 22  3    1.1463 23  1    1.1043 23  2    2.0714 23  3   -0.0099 24  1    1.0976
 24  2    2.0897 24  3    3.1058 25  1    1.0914 25  2    2.1012 25  3   -0.0303
 26  1    1.0914 26  2    2.1043 26  3    3.0988 27  1    1.0923 27  2    2.0818
 27  3    6.2746 28  1    1.0929 28  2    2.0786 28  3   -0.0011 29  1    1.0940
 29  2    2.0910 29  3    3.1407 30  1    1.0929 30  2    2.0936 30  3    3.1613
 31  1    1.0950 31  2    2.1073 31  3    3.1424 32  1    1.0961 32  2    2.0698
 32  3    3.1421
 grad
       0.00000   -0.00000   -0.00000   -0.00379    0.00000    0.00000    0.01876   -0.04414
       0.00000    0.00232   -0.00961    0.11152    0.16309   -0.32091    0.05757    0.07026
      -0.27210    0.07155    0.10839   -0.14153    0.04933    0.12588   -0.16205   -0.12028
       0.10149   -0.19832   -0.11831    0.02067   -0.01502    0.05404    0.21345   -0.38055
       0.01182    0.05764   -0.04663    0.01231    0.09411   -0.15244    0.01826    0.09116
      -0.18139    0.14838    0.14008    0.02791   -0.02294   -0.04027    0.07874    0.00473
       0.10532   -0.16211   -0.09053    0.17332   -0.29337   -0.04468    0.02855   -0.04099
       0.01566    0.01793   -0.03002    0.00573    0.01918   -0.01927    0.02725    0.01920
      -0.04456    0.02477   -0.00351   -0.00959    0.03823    0.02836   -0.03616    0.02250
      -0.00070   -0.00023    0.02144    0.02961   -0.04527    0.02080    0.05225   -0.08051
       0.03829    0.00039   -0.00615    0.04044    0.02726   -0.04580    0.00637    0.03122
      -0.05271    0.00947    0.02687   -0.04296    0.02631    0.02499   -0.04575   -0.00845
 CYCLE:    73 TIME:   0.016 TIME LEFT:  2.00D  GRAD.:     0.957 HEAT:  209.5277

     GRADIENT =  0.95690 IS LESS THAN CUTOFF =  1.00000



  HEAT OF FORMATION        209.52774388732360    

 -------------------------------------------------------------------------------
 PM7 CHARGE=+1 EF NOXYZ PRNT=2 PDBOUT COMPFG GRAPHF
 5,6-dihydroisoquinolino[2,1-b]isoquinolin-7-ium



     GEOMETRY OPTIMISED USING EIGENVECTOR FOLLOWING (EF).     
     SCF FIELD WAS ACHIEVED                                   


                              PM7 CALCULATION
                                                       MOPAC v22.0.6 Linux
                                                       Sun Oct 12 20:13:49 2025




          FINAL HEAT OF FORMATION =        209.52774 KCAL/MOL =     876.66408 KJ/MOL


          COSMO AREA              =        259.06 SQUARE ANGSTROMS
          COSMO VOLUME            =        281.22 CUBIC ANGSTROMS

          GRADIENT NORM           =          0.95690          =       0.16916 PER ATOM
          IONIZATION POTENTIAL    =         12.549701 EV
          HOMO LUMO ENERGIES (EV) =        -12.550 -5.149
          NO. OF FILLED LEVELS    =         43
          MOLECULAR WEIGHT        =        232.3043         POINT GROUP:  C1  

          MOLECULAR DIMENSIONS (Angstroms)

            Atom       Atom       Distance
            H    31    H    29    11.44194
            H    28    H    20     6.44443
            H    22    H    19     3.04881


          SCF CALCULATIONS        =         98

          WALL-CLOCK TIME         =      1.375 SECONDS
          COMPUTATION TIME        =      1.114 SECONDS




  ATOM               CHEMICAL                 BOND LENGTH      BOND ANGLE     TWIST ANGLE 
 NUMBER               SYMBOL                  (ANGSTROMS)      (DEGREES)       (DEGREES) 
   (I)                                           NA:I           NB:NA:I       NC:NB:NA:I       NA    NB    NC 
     1       N(HETATM    1  N   HET A   1)   -0.09014373  *   -0.1055543  *   -0.0671166  *
     2       C(HETATM    2  C1  HET A   1)    1.48480332  *    4.7711435  *   -3.1931449  *     1     0     0
     3       C(HETATM    3  C2  HET A   1)    1.53193277  *  110.0490756  *    9.7847970  *     2     1     0
     4       C(HETATM    4  C3  HET A   1)    1.39695280  *  118.7953196  *   39.6258532  *     1     2     3
     5       C(HETATM    5  C4  HET A   1)    1.49496126  *  109.2233176  *  -56.3516414  *     3     2     1
     6       C(HETATM    6  C5  HET A   1)    1.40449617  *  118.3226316  *   35.9707319  *     5     3     2
     7       C(HETATM    7  C6  HET A   1)    1.34362351  *  119.6525247  * -139.9202185  *     1     2     3
     8       C(HETATM    8  C7  HET A   1)    1.38062837  *  118.7907163  * -178.2913647  *     4     1     2
     9       C(HETATM    9  C8  HET A   1)    1.41187554  *  121.2505100  *  179.4349732  *     7     1     2
    10       C(HETATM   10  C9  HET A   1)    1.41475155  *  121.4719446  *   -1.4900058  *     8     4     1
    11       C(HETATM   11  C10 HET A   1)    1.39110353  *  121.3594007  * -143.4621707  *     5     3     2
    12       C(HETATM   12  C11 HET A   1)    1.39881282  *  119.5125585  * -176.8663251  *     6     5     3
    13       C(HETATM   13  C12 HET A   1)    1.42334168  *  121.5652461  *  179.5412660  *     9     7     1
    14       C(HETATM   14  C13 HET A   1)    1.41957616  *  122.4798073  * -179.4150857  *    10     8     4
    15       C(HETATM   15  C14 HET A   1)    1.39486848  *  119.7476099  *  178.0300023  *    11     5     3
    16       C(HETATM   16  C15 HET A   1)    1.39425947  *  120.2003951  *   -0.4715392  *    15    11     5
    17       C(HETATM   17  C16 HET A   1)    1.37010560  *  119.7586861  *  179.4724423  *    13     9     7
    18       C(HETATM   18  C17 HET A   1)    1.42150315  *  120.5259964  *    0.0385172  *    17    13     9
    19       H(HETATM   19 1H1  HET A   1)    1.12194296  *  108.1452860  * -120.5348868  *     2     1     3
    20       H(HETATM   20 2H1  HET A   1)    1.11515965  *  110.3759043  *  122.5317291  *     2     1     3
    21       H(HETATM   21 1H2  HET A   1)    1.11457809  *  109.5168216  * -178.9799117  *     3     2     1
    22       H(HETATM   22 2H2  HET A   1)    1.11448505  *  111.5740591  *   65.6767376  *     3     2     1
    23       H(HETATM   23  H6  HET A   1)    1.10425277  *  118.6828445  *   -0.5680833  *     7     1     2
    24       H(HETATM   24  H7  HET A   1)    1.09760759  *  119.7286285  *  177.9485275  *     8     4     1
    25       H(HETATM   25  H10 HET A   1)    1.09136479  *  120.3872367  *   -1.7355418  *    11     5     3
    26       H(HETATM   26  H11 HET A   1)    1.09138383  *  120.5697841  *  177.5498422  *    12     6     5
    27       H(HETATM   27  H12 HET A   1)    1.09232516  *  119.2795010  *   -0.4928076  *    13     9     7
    28       H(HETATM   28  H13 HET A   1)    1.09291728  *  119.0945560  *   -0.0611551  *    14    10     8
    29       H(HETATM   29  H14 HET A   1)    1.09400299  *  119.8081309  *  179.9503938  *    15    11     5
    30       H(HETATM   30  H15 HET A   1)    1.09288716  *  119.9527933  * -178.8713882  *    16    15    11
    31       H(HETATM   31  H16 HET A   1)    1.09503202  *  120.7384713  * -179.9545755  *    17    13     9
    32       H(HETATM   32  H17 HET A   1)    1.09612907  *  118.5883249  * -179.9690827  *    18    17    13

                             CARTESIAN COORDINATES

   1    N       -0.090143727    -0.105554263    -0.067116623
   2    C        1.394659593    -0.105554263    -0.067116623
   3    C        1.919844279     1.333542344    -0.067116623
   4    C       -0.763030871     0.837366664    -0.847885569
   5    C        1.353825409     2.064075950    -1.242213411
   6    C        0.038246029     1.771962287    -1.637852130
   7    C       -0.754886346    -0.998991512     0.684688725
   8    C       -2.143187781     0.860489891    -0.820192439
   9    C       -2.166161795    -1.021475593     0.719164919
  10    C       -2.882047035    -0.065412620    -0.046685168
  11    C        2.105304393     3.002912141    -1.941523768
  12    C       -0.493608956     2.392039977    -2.773330544
  13    C       -2.877212139    -1.971082821     1.505647626
  14    C       -4.301195396    -0.068767273    -0.011998526
  15    C        1.557958037     3.634844230    -3.058095255
  16    C        0.266364581     3.320715349    -3.478890748
  17    C       -4.247115267    -1.952569934     1.520209218
  18    C       -4.964405887    -0.992839167     0.755302548
  19    H        1.744063608    -0.647224818    -0.985411696
  20    H        1.782933475    -0.667725998     0.814238799
  21    H        3.034217868     1.323245605    -0.085819313
  22    H        1.659323085     1.864853417     0.877295456
  23    H       -0.175254279    -1.724296799     1.282462169
  24    H       -2.686661156     1.616600877    -1.401290790
  25    H        3.121044251     3.244553457    -1.623783136
  26    H       -1.499547983     2.147981622    -3.119221933
  27    H       -2.318869810    -2.705402423     2.090628664
  28    H       -4.848964671     0.670097340    -0.602334096
  29    H        2.147766800     4.373924204    -3.608303352
  30    H       -0.151669730     3.804742200    -4.365100470
  31    H       -4.810279111    -2.675128291     2.120085057
  32    H       -6.059877485    -1.006462923     0.790732985


           Empirical Formula: C17 H14 N  =    32 atoms



      MOLECULAR POINT GROUP   :   C1  


                  EIGENVALUES  
 -42.24161 -34.84228 -34.24981 -32.68388 -31.92618 -30.71717 -30.18683 -29.02714
 -28.15071 -27.02461 -26.39152 -25.96368 -24.72964 -24.17457 -23.12788 -22.04359
 -21.87671 -21.47455 -20.65071 -20.12173 -19.61773 -19.37381 -19.13462 -18.64536
 -18.38948 -18.30545 -18.10502 -17.82099 -17.75534 -17.25617 -17.05098 -16.84095
 -16.73335 -16.02031 -15.96142 -15.63933 -15.29392 -15.26525 -15.11841 -13.93231
 -13.45245 -12.96668 -12.54970  -5.14907  -4.74021  -3.27239  -3.19590  -3.04267
  -2.93065  -2.37071  -1.18112  -0.95800  -0.74047  -0.72511  -0.29722  -0.10855
   0.03636   0.13488   0.38348   0.49987   0.64403   0.86458   0.90992   1.00680
   1.10594   1.14944   1.33359   1.40550   1.52815   1.53983   1.68475   1.73937
   1.79815   1.92033   2.00034   2.08996   2.21394   2.46936   2.51339   2.61516
   2.65062   2.69889   2.70828   2.97059   3.10949   3.19384


              NET ATOMIC CHARGES AND DIPOLE CONTRIBUTIONS

  ATOM NO.                 TYPE                        CHARGE      No. of ELECS.   s-Pop       p-Pop       
    1          N(HETATM    1  N   HET A   1)          -0.118910        5.1189     1.51835     3.60056
    2          C(HETATM    2  C1  HET A   1)          -0.114885        4.1149     1.08399     3.03090
    3          C(HETATM    3  C2  HET A   1)          -0.309178        4.3092     1.06112     3.24806
    4          C(HETATM    4  C3  HET A   1)           0.151554        3.8484     1.07326     2.77518
    5          C(HETATM    5  C4  HET A   1)           0.032167        3.9678     1.06822     2.89961
    6          C(HETATM    6  C5  HET A   1)          -0.124170        4.1242     1.05126     3.07291
    7          C(HETATM    7  C6  HET A   1)           0.055944        3.9441     1.10597     2.83808
    8          C(HETATM    8  C7  HET A   1)          -0.187712        4.1877     1.09254     3.09517
    9          C(HETATM    9  C8  HET A   1)          -0.088439        4.0884     1.06072     3.02772
   10          C(HETATM   10  C9  HET A   1)           0.074956        3.9250     1.06874     2.85630
   11          C(HETATM   11  C10 HET A   1)          -0.170536        4.1705     1.08521     3.08533
   12          C(HETATM   12  C11 HET A   1)          -0.091361        4.0914     1.08789     3.00347
   13          C(HETATM   13  C12 HET A   1)          -0.118785        4.1188     1.08651     3.03227
   14          C(HETATM   14  C13 HET A   1)          -0.169913        4.1699     1.08599     3.08392
   15          C(HETATM   15  C14 HET A   1)          -0.071595        4.0716     1.09405     2.97755
   16          C(HETATM   16  C15 HET A   1)          -0.149469        4.1495     1.08643     3.06304
   17          C(HETATM   17  C16 HET A   1)          -0.113698        4.1137     1.09291     3.02078
   18          C(HETATM   18  C17 HET A   1)          -0.057864        4.0579     1.09862     2.95924
   19          H(HETATM   19 1H1  HET A   1)           0.189695        0.8103     0.81031
   20          H(HETATM   20 2H1  HET A   1)           0.177040        0.8230     0.82296
   21          H(HETATM   21 1H2  HET A   1)           0.192603        0.8074     0.80740
   22          H(HETATM   22 2H2  HET A   1)           0.185840        0.8142     0.81416
   23          H(HETATM   23  H6  HET A   1)           0.205226        0.7948     0.79477
   24          H(HETATM   24  H7  HET A   1)           0.206130        0.7939     0.79387
   25          H(HETATM   25  H10 HET A   1)           0.174888        0.8251     0.82511
   26          H(HETATM   26  H11 HET A   1)           0.163703        0.8363     0.83630
   27          H(HETATM   27  H12 HET A   1)           0.174909        0.8251     0.82509
   28          H(HETATM   28  H13 HET A   1)           0.184208        0.8158     0.81579
   29          H(HETATM   29  H14 HET A   1)           0.174641        0.8254     0.82536
   30          H(HETATM   30  H15 HET A   1)           0.178176        0.8218     0.82182
   31          H(HETATM   31  H16 HET A   1)           0.183778        0.8162     0.81622
   32          H(HETATM   32  H17 HET A   1)           0.181056        0.8189     0.81894
 DIPOLE           X         Y         Z       TOTAL
 POINT-CHG.     0.637    -2.350     1.856     3.061
 HYBRID         0.229    -0.317     0.303     0.495
 SUM            0.866    -2.667     2.159     3.539


          ATOMIC ORBITAL ELECTRON POPULATIONS

                   Atom                  s        px        py        pz   
   N(HETATM    1  N   HET A   1)   1.51835   1.14112   1.20748   1.25197
   C(HETATM    2  C1  HET A   1)   1.08399   0.75764   1.07956   1.19370
   C(HETATM    3  C2  HET A   1)   1.06112   1.15567   0.98271   1.10968
   C(HETATM    4  C3  HET A   1)   1.07326   0.95223   0.89929   0.92366
   C(HETATM    5  C4  HET A   1)   1.06822   0.96111   0.97590   0.96261
   C(HETATM    6  C5  HET A   1)   1.05126   0.99863   1.04383   1.03045
   C(HETATM    7  C6  HET A   1)   1.10597   1.00124   0.92159   0.91526
   C(HETATM    8  C7  HET A   1)   1.09254   0.99109   1.06144   1.04264
   C(HETATM    9  C8  HET A   1)   1.06072   0.95178   1.03347   1.04247
   C(HETATM   10  C9  HET A   1)   1.06874   0.99477   0.93529   0.92624
   C(HETATM   11  C10 HET A   1)   1.08521   1.08010   1.00022   1.00500
   C(HETATM   12  C11 HET A   1)   1.08789   1.06687   0.97000   0.96661
   C(HETATM   13  C12 HET A   1)   1.08651   1.02004   1.01223   1.00001
   C(HETATM   14  C13 HET A   1)   1.08599   0.98171   1.05814   1.04407
   C(HETATM   15  C14 HET A   1)   1.09405   1.00232   0.99400   0.98123
   C(HETATM   16  C15 HET A   1)   1.08643   1.00021   1.00513   1.05770
   C(HETATM   17  C16 HET A   1)   1.09291   1.00239   1.02049   0.99790
   C(HETATM   18  C17 HET A   1)   1.09862   1.09456   0.94045   0.92423
   H(HETATM   19 1H1  HET A   1)   0.81031
   H(HETATM   20 2H1  HET A   1)   0.82296
   H(HETATM   21 1H2  HET A   1)   0.80740
   H(HETATM   22 2H2  HET A   1)   0.81416
   H(HETATM   23  H6  HET A   1)   0.79477
   H(HETATM   24  H7  HET A   1)   0.79387
   H(HETATM   25  H10 HET A   1)   0.82511
   H(HETATM   26  H11 HET A   1)   0.83630
   H(HETATM   27  H12 HET A   1)   0.82509
   H(HETATM   28  H13 HET A   1)   0.81579
   H(HETATM   29  H14 HET A   1)   0.82536
   H(HETATM   30  H15 HET A   1)   0.82182
   H(HETATM   31  H16 HET A   1)   0.81622
   H(HETATM   32  H17 HET A   1)   0.81894

           DATA FOR GRAPH WRITTEN TO DISK

 **********************
 *                    *
 * JOB ENDED NORMALLY *
 *                    *
 **********************



 TOTAL JOB TIME:             1.39 SECONDS

 == MOPAC DONE ==
