 *******************************************************************************
 **                                                                           **
 **                              MOPAC v22.0.6                                **
 **                                                                           **
 *******************************************************************************
 **          Digital Object Identifier (DOI): 10.5281/zenodo.6511958          **
 **    Visit the DOI location for information on how to cite this program.    **
 *******************************************************************************

                              PM7 CALCULATION RESULTS

 *******************************************************************************
 *  CALCULATION DONE:                                Sun Oct 12 20:02:05 2025  *
 *  PM7        - The PM7 Hamiltonian to be used
 *  PDBOUT     - PRINT GEOMETRY IN PDB FORMAT
 *  RESIDUES   - DETERMINE THE SEQUENCE OF RESIDUES
 *
 *
 *
 *                 CHARGE ON SYSTEM = +1
 *
 *
 *
 *  EF         - USE EF ROUTINE FOR MINIMUM SEARCH
 *  T=         - A TIME OF 172800.0 SECONDS REQUESTED
 *  DUMP=N     - RESTART FILE WRITTEN EVERY 7200.0 SECONDS REQUESTED
 *  NOXYZ      - CARTESIAN COORDINATES NOT TO BE PRINTED
 *  PRNT       - EXTRA PRINTING IN EF ROUTINE
 *  GRAPH      - GENERATE FILE FOR GRAPHICS
 *  COMPFG     - PRINT HEAT OF FORMATION CALC'D IN COMPFG
 *******************************************************************************
PM7 CHARGE=+1 EF NOXYZ PRNT=2 PDBOUT COMPFG GRAPHF
 15-methoxy-24-methyl-5,7,18,20-tetraoxa-24-azoniahexacyclo[11.11.0.02,10.04,8.014,22.017,21]tetracosa-1(13),2,4(8),9,11,14,16,21,23-nonaene

  ATOM    CHEMICAL      BOND LENGTH      BOND ANGLE     TWIST ANGLE 
 NUMBER    SYMBOL       (ANGSTROMS)      (DEGREES)       (DEGREES) 
   (I)                     NA:I           NB:NA:I       NC:NB:NA:I       NA    NB    NC 
     1       O          0.00000000  *    0.0000000  *    0.0000000  *     0     0     0
     2       O          2.22197400  *    0.0000000  *    0.0000000  *     1     0     0
     3       O          4.81828400  *   94.0373690  *    0.0000000  *     2     1     0
     4       O          9.10074200  *  103.9465680  *    0.1681660  *     3     2     1
     5       O          2.22495800  *   76.9440990  * -179.0343350  *     4     3     2
     6       N          4.26885600  *  125.4912000  *   -0.0043940  *     1     2     3
     7       C          1.39949500  *  121.5349510  *    0.6042610  *     6     1     2
     8       C          1.46094300  *  117.7045070  *   -0.0285530  *     7     6     1
     9       C          1.44954000  *  120.5407230  *   -0.4092020  *     8     7     6
    10       C          1.41816300  *  116.7858600  *    0.6376850  *     9     8     7
    11       C          1.47311300  *  124.2972540  *  179.9574950  *     7     6     1
    12       C          1.44226100  *  118.6780850  * -179.5547940  *    11     7     6
    13       C          4.56541500  *   31.2937090  *   -0.0317520  *     2     1     3
    14       C          1.33907100  *   70.8561230  *    0.1956150  *     1     2     3
    15       C          1.41280900  *  118.3897210  *  179.4858140  *     8     7     6
    16       C          1.35613600  *   28.9388890  *   -0.7813080  *     3     2     1
    17       C          1.37043400  *  122.9446440  *    0.2111720  *    15     8     7
    18       C          1.44087900  *  126.5894950  *    0.4978530  *    11     7     6
    19       C          1.33574900  *   70.4498040  *   -0.1771130  *     2     1     3
    20       C          1.41458600  *  122.3834540  *  179.9612470  *    12    11     7
    21       C          1.37584000  *  128.2880430  *  179.8239950  *    19     2     1
    22       C          1.33684300  *    6.2970570  * -173.3475930  *     4     3     2
    23       C          1.47189300  *  112.5383400  * -179.4274210  *     6     1     2
    24       C          1.33502100  *  109.1808260  * -174.1121770  *    22     4     3
    25       C          1.38981800  *   36.9551700  *  179.8595180  *     2     1     3
    26       C          1.39101400  *   36.9111190  * -179.2555580  *     5     4     3
    27       C          1.38084900  *   98.6923160  *  178.3342990  *     3     2     1
    28       H          1.08630700  *  120.4446720  *    8.4248840  *    13     6     1
    29       H          1.06279700  *  125.5764640  * -179.5551760  *    15     8     7
    30       H          1.08591100  *  118.3575990  * -179.9486860  *    17    15     8
    31       H          1.05846900  *  128.2718570  *    0.0873900  *    18    11     7
    32       H          1.08411600  *  122.1314900  * -179.9682870  *    20    12    11
    33       H          1.08111700  *  118.3707850  *   -0.0771970  *    21    19     2
    34       H          1.11013800  *  109.7696900  *  116.0755610  *    23     6     1
    35       H          1.11011800  *  109.8245000  * -116.6491410  *    23     6     1
    36       H          1.11232300  *  114.0753490  *   -0.2045520  *    23     6     1
    37       H          1.11070900  *  110.1348610  *  119.1735550  *    25     2     1
    38       H          1.11062200  *  110.1310150  * -119.1619620  *    25     2     1
    39       H          1.11077300  *  110.1068420  *  119.1890170  *    26     5     4
    40       H          1.11058500  *  110.1305530  * -119.2009480  *    26     5     4
    41       H          1.11060500  *  110.3590320  *   60.7584240  *    27     3     2
    42       H          1.11096600  *  110.1956180  *  -61.3897420  *    27     3     2
    43       H          1.10918900  *  108.9588240  *  179.7620100  *    27     3     2


 General Reference for PM7:
 "Optimization of Parameters for Semiempirical Methods VI: More Modifications to the 
 NDDO Approximations and Re-optimization of Parameters", J. J. P. Stewart, J. Mol. Mod., 1:32, 19 (2013)
 https://link.springer.com/article/10.1007/s00894-012-1667-x

           Empirical Formula: C21 H16 N O5  =    43 atoms



      MOLECULAR POINT GROUP   :   Cs  


      RHF CALCULATION, NO. OF DOUBLY OCCUPIED LEVELS = 67


          Geometry optimization using EF

  HEAT OF FORMATION        105.96442599254078    
 PARAMETERS        0.000   0.000   0.000   2.222   0.000   0.000   4.818   1.641
   0.000   9.101   1.814   0.003   2.225   1.343   3.158   4.269   2.190   6.283

   1.399   2.121   0.011   1.461   2.054   6.283   1.450   2.104   6.276   1.418

   2.038   0.011   1.473   2.169   3.141   1.442   2.071   3.149   4.565   0.546

   6.283   1.339   1.237   0.003   1.413   2.066   3.133   1.356   0.505   6.270

   1.370   2.146   0.004   1.441   2.209   0.009   1.336   1.230   6.280   1.415

   2.136   3.141   1.376   2.239   3.139   1.337   0.110   3.258   1.472   1.964

   3.152   1.335   1.906   3.244   1.390   0.645   3.139   1.391   0.644   3.155

   1.381   1.723   3.113   1.086   2.102   0.147   1.063   2.192   3.149   1.086

   2.066   3.142   1.058   2.239   0.002   1.084   2.132   3.142   1.081   2.066

   6.282   1.110   1.916   2.026   1.110   1.917   4.247   1.112   1.991   6.280

   1.111   1.922   2.080   1.111   1.922   4.203   1.111   1.922   2.080   1.111

   1.922   4.203   1.111   1.926   1.060   1.111   1.923   5.212   1.109   1.902

   3.137
 GRADIENT          0.000   0.000  -0.000 -93.683   0.000   0.000  47.624  45.610
   0.000  30.139  18.353   3.296 -83.311 -98.901   1.003  47.919 130.124 -22.806

 -21.079-122.787   1.755-102.561  31.069   2.231 -12.645-138.769   0.578  17.221

 -41.261  -0.607 -20.804 212.383  -1.888  34.171 -75.118  -0.118 -72.694  63.679

 -27.320 -12.461-112.039  -0.135 -13.132-155.277   0.782 -13.180  44.486  -0.627

  26.506 -47.858  -0.001  12.080  35.442  -0.188 -40.008-117.992   0.260 -18.105

  -3.662  -0.158 -38.351 -22.865  -0.121-109.884 114.542  -1.256   4.061 -18.787

   0.104-116.248 -70.168  -0.031 -31.075 -56.500  -0.026 -30.276 -58.262   0.080

 -21.999  26.740  -0.069 -13.960   7.909  -0.109 -23.539  22.575   0.169  -9.578

  -2.295  -0.070 -17.164  17.289   0.044  -5.019   3.957  -0.047  -6.569  -6.057

  -0.032  -0.154  -2.707  -7.477  -0.089  -2.657   7.374   1.209   5.693   0.112

   0.334   3.354   5.556   0.284   3.343  -5.525   0.423   3.264   5.342   0.363

   3.319  -5.368   5.066  -1.153  -0.135   5.135  -1.343   0.003   7.388  16.251

   0.077

          DIAGONAL MATRIX USED AS START HESSIAN

*REMARK   3 HET = Not identified; C 21 H 16 N O 5    =    43 atoms res:    1
 PM7 CHARGE=+1 EF NOXYZ PRNT=2 PDBOUT COMPFG GRAPHF
 15-methoxy-24-methyl-5,7,18,20-tetraoxa-24-azoniahexacyclo[11.11.0.02,10.04,8.014,22.017,21]tetracosa-1(13),2,4(8),9,11,14,16,21,23-nonaene

  O(HETATM    1  O1  HET A   1)   0.00000000 +1    0.0000000 +1    0.0000000 +1
  O(HETATM    2  O2  HET A   1)   2.22197400 +1    0.0000000 +1    0.0000000 +1     1     0     0
  O(HETATM    3  O3  HET A   1)   4.81828400 +1   94.0373690 +1    0.0000000 +1     2     1     0
  O(HETATM    4  O4  HET A   1)   9.10074200 +1  103.9465680 +1    0.1681660 +1     3     2     1
  O(HETATM    5  O5  HET A   1)   2.22495800 +1   76.9440990 +1 -179.0343350 +1     4     3     2
  N(HETATM    6  N   HET A   1)   4.26885600 +1  125.4912000 +1   -0.0043940 +1     1     2     3
  C(HETATM    7  C1  HET A   1)   1.39949500 +1  121.5349510 +1    0.6042610 +1     6     1     2
  C(HETATM    8  C2  HET A   1)   1.46094300 +1  117.7045070 +1   -0.0285530 +1     7     6     1
  C(HETATM    9  C3  HET A   1)   1.44954000 +1  120.5407230 +1   -0.4092020 +1     8     7     6
  C(HETATM   10  C4  HET A   1)   1.41816300 +1  116.7858600 +1    0.6376850 +1     9     8     7
  C(HETATM   11  C5  HET A   1)   1.47311300 +1  124.2972540 +1  179.9574950 +1     7     6     1
  C(HETATM   12  C6  HET A   1)   1.44226100 +1  118.6780850 +1 -179.5547940 +1    11     7     6
  C(HETATM   13  C7  HET A   1)   4.56541500 +1   31.2937090 +1   -0.0317520 +1     2     1     3
  C(HETATM   14  C8  HET A   1)   1.33907100 +1   70.8561230 +1    0.1956150 +1     1     2     3
  C(HETATM   15  C9  HET A   1)   1.41280900 +1  118.3897210 +1  179.4858140 +1     8     7     6
  C(HETATM   16  C10 HET A   1)   1.35613600 +1   28.9388890 +1   -0.7813080 +1     3     2     1
  C(HETATM   17  C11 HET A   1)   1.37043400 +1  122.9446440 +1    0.2111720 +1    15     8     7
  C(HETATM   18  C12 HET A   1)   1.44087900 +1  126.5894950 +1    0.4978530 +1    11     7     6
  C(HETATM   19  C13 HET A   1)   1.33574900 +1   70.4498040 +1   -0.1771130 +1     2     1     3
  C(HETATM   20  C14 HET A   1)   1.41458600 +1  122.3834540 +1  179.9612470 +1    12    11     7
  C(HETATM   21  C15 HET A   1)   1.37584000 +1  128.2880430 +1  179.8239950 +1    19     2     1
  C(HETATM   22  C16 HET A   1)   1.33684300 +1    6.2970570 +1 -173.3475930 +1     4     3     2
  C(HETATM   23  C17 HET A   1)   1.47189300 +1  112.5383400 +1 -179.4274210 +1     6     1     2
  C(HETATM   24  C18 HET A   1)   1.33502100 +1  109.1808260 +1 -174.1121770 +1    22     4     3
  C(HETATM   25  C19 HET A   1)   1.38981800 +1   36.9551700 +1  179.8595180 +1     2     1     3
  C(HETATM   26  C20 HET A   1)   1.39101400 +1   36.9111190 +1 -179.2555580 +1     5     4     3
  C(HETATM   27  C21 HET A   1)   1.38084900 +1   98.6923160 +1  178.3342990 +1     3     2     1
  H(HETATM   28  H7  HET A   1)   1.08630700 +1  120.4446720 +1    8.4248840 +1    13     6     1
  H(HETATM   29  H9  HET A   1)   1.06279700 +1  125.5764640 +1 -179.5551760 +1    15     8     7
  H(HETATM   30  H11 HET A   1)   1.08591100 +1  118.3575990 +1 -179.9486860 +1    17    15     8
  H(HETATM   31  H12 HET A   1)   1.05846900 +1  128.2718570 +1    0.0873900 +1    18    11     7
  H(HETATM   32  H14 HET A   1)   1.08411600 +1  122.1314900 +1 -179.9682870 +1    20    12    11
  H(HETATM   33  H15 HET A   1)   1.08111700 +1  118.3707850 +1   -0.0771970 +1    21    19     2
  H(HETATM   34 1H17 HET A   1)   1.11013800 +1  109.7696900 +1  116.0755610 +1    23     6     1
  H(HETATM   35 2H17 HET A   1)   1.11011800 +1  109.8245000 +1 -116.6491410 +1    23     6     1
  H(HETATM   36 3H17 HET A   1)   1.11232300 +1  114.0753490 +1   -0.2045520 +1    23     6     1
  H(HETATM   37 1H19 HET A   1)   1.11070900 +1  110.1348610 +1  119.1735550 +1    25     2     1
  H(HETATM   38 2H19 HET A   1)   1.11062200 +1  110.1310150 +1 -119.1619620 +1    25     2     1
  H(HETATM   39 1H20 HET A   1)   1.11077300 +1  110.1068420 +1  119.1890170 +1    26     5     4
  H(HETATM   40 2H20 HET A   1)   1.11058500 +1  110.1305530 +1 -119.2009480 +1    26     5     4
  H(HETATM   41 1H21 HET A   1)   1.11060500 +1  110.3590320 +1   60.7584240 +1    27     3     2
  H(HETATM   42 2H21 HET A   1)   1.11096600 +1  110.1956180 +1  -61.3897420 +1    27     3     2
  H(HETATM   43 3H21 HET A   1)   1.10918900 +1  108.9588240 +1  179.7620100 +1    27     3     2

 XPARAM 
  1  1    0.0000  1  2    0.0000  1  3    0.0000  2  1    2.2220  2  2    0.0000
  2  3    0.0000  3  1    4.8183  3  2    1.6413  3  3    0.0000  4  1    9.1007
  4  2    1.8142  4  3    0.0029  5  1    2.2250  5  2    1.3429  5  3    3.1584
  6  1    4.2689  6  2    2.1902  6  3    6.2831  7  1    1.3995  7  2    2.1212
  7  3    0.0105  8  1    1.4609  8  2    2.0543  8  3    6.2827  9  1    1.4495
  9  2    2.1038  9  3    6.2760 10  1    1.4182 10  2    2.0383 10  3    0.0111
 11  1    1.4731 11  2    2.1694 11  3    3.1409 12  1    1.4423 12  2    2.0713
 12  3    3.1494 13  1    4.5654 13  2    0.5462 13  3    6.2826 14  1    1.3391
 14  2    1.2367 14  3    0.0034 15  1    1.4128 15  2    2.0663 15  3    3.1326
 16  1    1.3561 16  2    0.5051 16  3    6.2695 17  1    1.3704 17  2    2.1458
 17  3    0.0037 18  1    1.4409 18  2    2.2094 18  3    0.0087 19  1    1.3357
 19  2    1.2296 19  3    6.2801 20  1    1.4146 20  2    2.1360 20  3    3.1409
 21  1    1.3758 21  2    2.2390 21  3    3.1385 22  1    1.3368 22  2    0.1099
 22  3    3.2577 23  1    1.4719 23  2    1.9642 23  3    3.1516 24  1    1.3350
 24  2    1.9056 24  3    3.2444 25  1    1.3898 25  2    0.6450 25  3    3.1391
 26  1    1.3910 26  2    0.6442 26  3    3.1546 27  1    1.3808 27  2    1.7225
 27  3    3.1125 28  1    1.0863 28  2    2.1022 28  3    0.1470 29  1    1.0628
 29  2    2.1917 29  3    3.1494 30  1    1.0859 30  2    2.0657 30  3    3.1425
 31  1    1.0585 31  2    2.2388 31  3    0.0015 32  1    1.0841 32  2    2.1316
 32  3    3.1421 33  1    1.0811 33  2    2.0660 33  3    6.2818 34  1    1.1101
 34  2    1.9158 34  3    2.0259 35  1    1.1101 35  2    1.9168 35  3    4.2473
 36  1    1.1123 36  2    1.9910 36  3    6.2796 37  1    1.1107 37  2    1.9222
 37  3    2.0800 38  1    1.1106 38  2    1.9221 38  3    4.2034 39  1    1.1108
 39  2    1.9217 39  3    2.0802 40  1    1.1106 40  2    1.9221 40  3    4.2027
 41  1    1.1106 41  2    1.9261 41  3    1.0604 42  1    1.1110 42  2    1.9233
 42  3    5.2117 43  1    1.1092 43  2    1.9017 43  3    3.1374
 grad
       0.00001    0.00001   -0.00000  -93.68285    0.00000    0.00000   47.62420   45.60985
       0.00000   30.13862   18.35303    3.29584  -83.31066  -98.90127    1.00331   47.91880
     130.12389  -22.80577  -21.07945 -122.78748    1.75466 -102.56141   31.06873    2.23109
     -12.64531 -138.76892    0.57832   17.22064  -41.26135   -0.60702  -20.80410  212.38338
      -1.88814   34.17085  -75.11753   -0.11766  -72.69355   63.67930  -27.31988  -12.46120
    -112.03912   -0.13521  -13.13227 -155.27721    0.78238  -13.18016   44.48605   -0.62707
      26.50595  -47.85774   -0.00137   12.07984   35.44165   -0.18837  -40.00804 -117.99188
       0.25963  -18.10527   -3.66215   -0.15793  -38.35090  -22.86478   -0.12103 -109.88393
     114.54214   -1.25611    4.06113  -18.78735    0.10432 -116.24820  -70.16791   -0.03056
     -31.07543  -56.49965   -0.02585  -30.27600  -58.26163    0.07956  -21.99869   26.73954
      -0.06876  -13.96003    7.90921   -0.10925  -23.53914   22.57547    0.16913   -9.57819
      -2.29468   -0.07044  -17.16369   17.28902    0.04450   -5.01854    3.95707   -0.04683
      -6.56914   -6.05660   -0.03167   -0.15372   -2.70693   -7.47678   -0.08937   -2.65694
       7.37373    1.20866    5.69287    0.11224    0.33425    3.35437    5.55624    0.28394
       3.34260   -5.52470    0.42308    3.26435    5.34211    0.36326    3.31876   -5.36780
       5.06615   -1.15273   -0.13521    5.13452   -1.34300    0.00279    7.38827   16.25134
       0.07709
 CYCLE:     1 TIME:   0.055 TIME LEFT:  2.00D  GRAD.:   528.789 HEAT:  105.9644

          HESSIAN HAS  0 NEGATIVE EIGENVALUE(S)
  MIN SEARCH, CORRECT HESSIAN, TRYING PURE NR STEP
 LAMBDA THAT MINIMIZES ALONG ALL MODES =        0.000000000
 PURE NR-STEP HAS LENGTH   0.92300
 LAMBDA THAT MINIMIZES ALONG ALL MODES =     -289.022100402
 P-RFO-STEP   HAS LENGTH   0.58757
 LAMBDA THAT MINIMIZES ALONG ALL MODES =    -1909.076049822
 QA/TRIM-STEP HAS LENGTH   0.20000

  HEAT OF FORMATION        535.04678326388239    
 PARAMETERS       -0.002  -0.018  -0.001   2.253  -0.011   0.002   4.796   1.621
   0.003   9.084   1.820   0.009   2.245   1.379   3.158   4.239   2.143   6.295

   1.400   2.161   0.007   1.484   2.039   6.279   1.442   2.159   6.273   1.406

   2.044   0.009   1.471   2.075   3.139   1.421   2.096   3.147   4.582   0.527

   6.299   1.339   1.271   0.002   1.408   2.124   3.130   1.353   0.484   6.270

   1.355   2.154   0.001   1.430   2.183   0.006   1.340   1.276   6.279   1.411

   2.131   3.138   1.379   2.242   3.136   1.370   0.055   3.259   1.461   1.965

   3.149   1.366   1.928   3.242   1.395   0.662   3.139   1.396   0.662   3.154

   1.380   1.704   3.111   1.089   2.095   0.146   1.068   2.180   3.148   1.087

   2.064   3.142   1.062   2.228   0.001   1.083   2.128   3.141   1.080   2.068

   6.281   1.108   1.914   2.029   1.107   1.916   4.243   1.108   1.988   6.279

   1.108   1.918   2.077   1.108   1.919   4.205   1.108   1.918   2.077   1.108

   1.919   4.205   1.107   1.923   1.060   1.106   1.922   5.211   1.104   1.893

   3.137
 GRADIENT          0.000  -0.000  -0.000 269.467   0.000   0.000  92.5611834.019
   0.000-305.8762020.433-198.378  -9.223 192.300   3.836-109.4002089.642********

-406.1741149.708 -54.384 418.094-913.502  85.701 264.655-119.609  94.809 239.451

-146.874  49.753 227.885********  66.296-240.6381275.125 -55.538-448.354 506.312

********  94.366 394.777  17.500  47.630 406.698  -3.594 225.728 568.017  -1.094

 -62.069 194.693  -2.110 -56.496 -84.381 -14.268   1.153 105.658  -3.917 175.536

-560.690  40.760  46.219 -62.916   0.870 421.805-403.705  45.492 -18.223  32.664

   0.619 188.149 547.267 -40.955  -9.810   6.568  -0.021  19.803  31.566  -0.967

 -29.287  14.352  -0.012 248.134-100.282 122.615 -20.576  11.674  -0.270   8.562

 -30.030  -0.087  -4.808  -5.089   3.744 -20.948  11.353  -5.455  -0.071 -17.317

  -0.190  -3.864  -4.774  -0.746  -3.990  -4.070   0.254  -4.466   4.642   0.160

   0.465   1.477   8.375   0.188   1.546  -8.476   2.353  -0.206   9.122   2.187

  -0.076  -9.419   3.097  -2.287  -0.945   2.643  -2.268   0.737   4.019  12.642

   0.067
       HoF         ACTUAL,  PREDICTED ENERGY CHANGE, RATIO
   535.0467833   429.0823573         -88.1121499   -4.8697297
 UNACCEPTABLE RATIO, REJECTING STEP, REDUCING DMAX TO 0.1000
  MIN SEARCH, CORRECT HESSIAN, TRYING PURE NR STEP
 LAMBDA THAT MINIMIZES ALONG ALL MODES =        0.000000000
 PURE NR-STEP HAS LENGTH   0.92300
 LAMBDA THAT MINIMIZES ALONG ALL MODES =     -289.022100402
 P-RFO-STEP   HAS LENGTH   0.58757
 LAMBDA THAT MINIMIZES ALONG ALL MODES =    -4401.952823400
 QA/TRIM-STEP HAS LENGTH   0.10000

  HEAT OF FORMATION        681.40292390565446    
 PARAMETERS       -0.001  -0.009  -0.000   2.238  -0.005   0.001   4.806   1.631
   0.001   9.092   1.817   0.006   2.236   1.361   3.158   4.253   2.167   6.289

   1.400   2.141   0.009   1.473   2.047   6.281   1.445   2.131   6.275   1.412

   2.041   0.010   1.472   2.123   3.140   1.431   2.083   3.148   4.574   0.537

   6.290   1.339   1.254   0.003   1.410   2.095   3.131   1.354   0.495   6.270

   1.362   2.150   0.002   1.435   2.197   0.007   1.338   1.253   6.279   1.413

   2.133   3.140   1.378   2.240   3.137   1.355   0.083   3.258   1.466   1.965

   3.150   1.352   1.917   3.243   1.392   0.653   3.139   1.393   0.653   3.154

   1.380   1.714   3.112   1.088   2.099   0.147   1.066   2.186   3.149   1.086

   2.065   3.142   1.061   2.233   0.001   1.084   2.130   3.142   1.080   2.067

   6.281   1.109   1.915   2.027   1.109   1.916   4.245   1.110   1.989   6.279

   1.109   1.920   2.078   1.109   1.921   4.204   1.109   1.920   2.079   1.109

   1.921   4.204   1.109   1.925   1.060   1.108   1.923   5.211   1.106   1.897

   3.137
 GRADIENT         -0.000  -0.000  -0.000 146.888   0.000   0.000  24.113 816.498
   0.000-112.150 713.880  -8.055 -36.848 108.568   1.6121482.910****************

****************1668.665****************3320.598****************3316.0603626.922

********1655.151 151.124-952.178  -1.636-117.147 609.347  -8.581****************

********  70.809 239.479  23.048  51.118 325.551  -2.756  83.940 186.553  -0.139

 -59.148 169.475  -1.397 -20.284   0.969  -5.591 -17.675   6.677  -2.409  71.700

-233.401   2.653  12.964 -38.943   0.063 155.281-237.462   4.444  -8.183   6.510

  -0.269 -15.071 248.900  -2.744 -20.320 -24.414  -0.230  -3.219  -5.938  -0.478

 -25.580  20.747  -0.0764554.157********2075.718 -21.759  18.214   0.039   3.868

 -19.675  -0.126 -13.464  10.405   1.934 -12.150   8.565  -2.309  -4.442 -11.997

  -0.201  -1.136  -3.422  -4.491  -1.124  -2.996   4.320  -2.295   7.857   0.037

  -0.006   2.220   6.851  -0.206   2.128  -7.075   1.546   1.593   7.227   1.413

   1.700  -7.366   3.960  -1.857  -0.760   3.694  -1.911   0.593   5.318  14.843

   0.071
       HoF         ACTUAL,  PREDICTED ENERGY CHANGE, RATIO
   681.4029239   575.4384979         -47.0280866  -12.2360602
 UNACCEPTABLE RATIO, REJECTING STEP, REDUCING DMAX TO 0.0500
  MIN SEARCH, CORRECT HESSIAN, TRYING PURE NR STEP
 LAMBDA THAT MINIMIZES ALONG ALL MODES =        0.000000000
 PURE NR-STEP HAS LENGTH   0.92300
 LAMBDA THAT MINIMIZES ALONG ALL MODES =     -289.022100402
 P-RFO-STEP   HAS LENGTH   0.58757
 LAMBDA THAT MINIMIZES ALONG ALL MODES =    -9403.598337590
 QA/TRIM-STEP HAS LENGTH   0.05000

  HEAT OF FORMATION        2295.8958516036510    
 PARAMETERS       -0.000  -0.004  -0.000   2.231  -0.003   0.001   4.812   1.636
   0.001   9.096   1.815   0.005   2.231   1.352   3.158   4.260   2.179   6.286

   1.400   2.131   0.010   1.467   2.051   6.282   1.447   2.117   6.275   1.415

   2.040   0.011   1.472   2.146   3.140   1.436   2.077   3.149   4.570   0.541

   6.286   1.339   1.245   0.003   1.411   2.080   3.132   1.355   0.500   6.270

   1.366   2.148   0.003   1.438   2.203   0.008   1.337   1.241   6.280   1.414

   2.135   3.140   1.377   2.240   3.138   1.346   0.097   3.258   1.469   1.964

   3.151   1.344   1.911   3.244   1.391   0.649   3.139   1.392   0.648   3.155

   1.381   1.718   3.112   1.087   2.101   0.147   1.064   2.189   3.149   1.086

   2.065   3.142   1.060   2.236   0.001   1.084   2.131   3.142   1.081   2.066

   6.282   1.110   1.915   2.027   1.109   1.917   4.246   1.111   1.990   6.279

   1.110   1.921   2.079   1.110   1.921   4.204   1.110   1.921   2.080   1.110

   1.921   4.203   1.110   1.925   1.060   1.110   1.923   5.212   1.108   1.900

   3.137
 GRADIENT          0.000   0.000  -0.000********   0.000   0.000  23.951 398.868
   0.000 -32.993 296.132  12.152 -56.957  24.648   0.953************************

********************************************************************************

****************  86.317-423.467  -6.157 -55.964 290.628  -0.960****************

********  62.798 135.430  26.753  34.576 178.559  -1.318  31.492  84.529  -0.998

 -36.652 105.093  -0.772  -5.216  23.699  -2.579 -24.221 -58.571  -1.660  24.957

-106.896  -1.575  -6.300 -26.682  -0.251  21.614 -83.055  -1.091  -1.437  -0.095

  -0.485 -79.183  91.242   1.386 -25.222 -42.371  -0.315 -16.291 -29.894  -0.202

 -24.257  23.792  -0.075************************ -22.540  20.459   0.132  -1.305

 -12.121  -0.096 -16.202  15.016   0.982  -8.221   6.668  -1.074  -6.647  -9.105

  -0.209   0.059  -2.698  -5.523   0.151  -2.423   5.453  -1.300   9.448   0.001

  -0.251   2.605   6.026  -0.400   2.459  -6.298   1.075   2.460   6.266   0.975

   2.547  -6.340   4.456  -1.656  -0.648   4.317  -1.747   0.504   6.071  15.828

   0.066
       HoF         ACTUAL,  PREDICTED ENERGY CHANGE, RATIO
  2295.8958516  2189.9314256         -24.2711071  -90.2279167
 UNACCEPTABLE RATIO, REJECTING STEP, REDUCING DMAX TO 0.0250
  MIN SEARCH, CORRECT HESSIAN, TRYING PURE NR STEP
 LAMBDA THAT MINIMIZES ALONG ALL MODES =        0.000000000
 PURE NR-STEP HAS LENGTH   0.92300
 LAMBDA THAT MINIMIZES ALONG ALL MODES =     -289.022100402
 P-RFO-STEP   HAS LENGTH   0.58757
 LAMBDA THAT MINIMIZES ALONG ALL MODES =   -19415.825922696
 QA/TRIM-STEP HAS LENGTH   0.02500

  HEAT OF FORMATION        2705.0814728127880    
 PARAMETERS       -0.000  -0.002  -0.000   2.226  -0.001   0.000   4.815   1.639
   0.000   9.098   1.815   0.004   2.228   1.347   3.158   4.265   2.184   6.284

   1.400   2.126   0.010   1.464   2.053   6.282   1.448   2.111   6.276   1.416

   2.039   0.011   1.473   2.158   3.141   1.439   2.074   3.149   4.568   0.544

   6.284   1.339   1.241   0.003   1.412   2.073   3.132   1.356   0.503   6.270

   1.368   2.147   0.003   1.439   2.206   0.008   1.336   1.235   6.280   1.414

   2.135   3.141   1.376   2.239   3.138   1.342   0.103   3.258   1.470   1.964

   3.151   1.339   1.908   3.244   1.390   0.647   3.139   1.392   0.646   3.155

   1.381   1.720   3.112   1.087   2.101   0.147   1.064   2.190   3.149   1.086

   2.066   3.142   1.059   2.237   0.001   1.084   2.131   3.142   1.081   2.066

   6.282   1.110   1.916   2.026   1.110   1.917   4.247   1.112   1.991   6.280

   1.110   1.922   2.080   1.110   1.922   4.204   1.110   1.921   2.080   1.110

   1.922   4.203   1.110   1.926   1.060   1.110   1.923   5.212   1.108   1.901

   3.137
 GRADIENT          0.001  -0.001  -0.000********   0.000   0.000  31.091 226.427
   0.000   1.609 148.094  10.426 -68.759 -30.080   0.858************************

********************************************************************************

****************  40.636-130.831  -4.534 -17.817 117.921   0.147****************

********  61.248  80.596  33.323  15.781  42.738  -0.265   9.605  52.076  -1.669

 -12.007  43.420  -0.458   1.108  29.726  -1.351 -28.419 -91.690  -1.425   2.801

 -52.607  -1.406 -18.371 -21.872  -0.420 -45.345  10.758  -1.644   2.291  -2.366

  -0.652-102.179  11.432   1.187 -27.495 -51.943  -0.383 -23.444 -43.183  -0.070

 -23.540  25.295  -0.056********4222.035******** -23.047  21.402   0.170  -4.864

  -7.517  -0.059 -17.262  16.667   0.500  -6.421   5.515  -0.532  -7.793  -7.613

  -0.225   0.661  -2.339  -5.860   0.815  -2.143   5.848  -0.828  10.284  -0.032

  -0.356   2.804   5.582  -0.483   2.618  -5.916   0.802   2.885   5.781   0.727

   2.956  -5.828   4.727  -1.549  -0.585   4.653  -1.651   0.453   6.495  16.298

   0.060
       HoF         ACTUAL,  PREDICTED ENERGY CHANGE, RATIO
  2705.0814728  2599.1170468         -12.3267357 -210.8520131
 UNACCEPTABLE RATIO, REJECTING STEP, REDUCING DMAX TO 0.0125
  MIN SEARCH, CORRECT HESSIAN, TRYING PURE NR STEP
 LAMBDA THAT MINIMIZES ALONG ALL MODES =        0.000000000
 PURE NR-STEP HAS LENGTH   0.92300
 LAMBDA THAT MINIMIZES ALONG ALL MODES =     -289.022100402
 P-RFO-STEP   HAS LENGTH   0.58757
 LAMBDA THAT MINIMIZES ALONG ALL MODES =   -39445.011756383
 QA/TRIM-STEP HAS LENGTH   0.01250

  HEAT OF FORMATION        372.38279986556154    
 PARAMETERS       -0.000  -0.001  -0.000   2.224  -0.001   0.000   4.817   1.640
   0.000   9.100   1.814   0.003   2.226   1.345   3.158   4.267   2.187   6.284

   1.400   2.124   0.010   1.463   2.053   6.282   1.449   2.107   6.276   1.417

   2.039   0.011   1.473   2.164   3.141   1.441   2.073   3.149   4.567   0.545

   6.284   1.339   1.239   0.003   1.412   2.070   3.132   1.356   0.504   6.270

   1.369   2.146   0.004   1.440   2.208   0.009   1.336   1.232   6.280   1.414

   2.136   3.141   1.376   2.239   3.138   1.339   0.107   3.258   1.471   1.964

   3.151   1.337   1.907   3.244   1.390   0.646   3.139   1.391   0.645   3.155

   1.381   1.721   3.112   1.087   2.102   0.147   1.063   2.191   3.149   1.086

   2.066   3.142   1.059   2.238   0.001   1.084   2.131   3.142   1.081   2.066

   6.282   1.110   1.916   2.026   1.110   1.917   4.247   1.112   1.991   6.280

   1.111   1.922   2.080   1.110   1.922   4.204   1.111   1.921   2.080   1.110

   1.922   4.203   1.110   1.926   1.060   1.111   1.923   5.212   1.109   1.901

   3.137
 GRADIENT          0.000   0.000  -0.000********   0.000   0.000  38.097 151.231
   0.000  16.242  90.429   7.203 -74.915 -59.808   0.861 149.968****************

-294.663-656.644 423.125-417.214******** 797.076-117.807-998.467 775.994 210.080

-385.991 380.413  12.076  30.368  -3.222   5.454  25.562   0.146****************

********  51.289  40.035  47.912  -0.459 -51.357   0.408  -1.749  44.337  -2.459

   7.835   0.096  -0.355   4.804  32.099  -0.816 -35.066 -98.473  -1.598  -6.362

 -28.901  -0.900 -29.517 -22.666  -0.558 -77.340  59.385  -1.513   5.293  -4.153

  -1.916-110.516 -26.981   0.680 -28.399 -56.779  -0.260 -27.411 -50.188  -0.021

 -23.020  26.107   0.033 -77.203 122.332 473.691 -23.413  21.842   0.230  -6.954

  -4.983   0.001 -17.951  17.366   0.231  -5.615   4.863  -0.272  -8.446  -6.839

  -0.188   1.071  -2.334  -5.762   1.433  -1.966   5.963  -0.655  11.081  -0.253

  -0.332   2.893   5.283  -0.529   2.720  -5.686   0.603   3.106   5.531   0.558

   3.166  -5.560   4.890  -1.501  -0.538   4.803  -1.587   0.422   6.762  16.496

   0.045
       HoF         ACTUAL,  PREDICTED ENERGY CHANGE, RATIO
   372.3827999   266.4183739          -6.2114133  -42.8917480
 UNACCEPTABLE RATIO, REJECTING STEP, REDUCING DMAX TO 0.0062
  MIN SEARCH, CORRECT HESSIAN, TRYING PURE NR STEP
 LAMBDA THAT MINIMIZES ALONG ALL MODES =        0.000000000
 PURE NR-STEP HAS LENGTH   0.92300
 LAMBDA THAT MINIMIZES ALONG ALL MODES =     -289.022100402
 P-RFO-STEP   HAS LENGTH   0.58757
 LAMBDA THAT MINIMIZES ALONG ALL MODES =   -79505.815637097
 QA/TRIM-STEP HAS LENGTH   0.00625

  HEAT OF FORMATION        105.07499664943316    
 PARAMETERS       -0.000  -0.001  -0.000   2.223  -0.000   0.000   4.817   1.641
   0.000   9.100   1.814   0.003   2.226   1.344   3.158   4.268   2.189   6.283

   1.400   2.122   0.010   1.462   2.054   6.283   1.449   2.106   6.276   1.418

   2.038   0.011   1.473   2.167   3.141   1.442   2.072   3.149   4.566   0.546

   6.283   1.339   1.238   0.003   1.413   2.068   3.133   1.356   0.504   6.270

   1.370   2.146   0.004   1.441   2.209   0.009   1.336   1.231   6.280   1.414

   2.136   3.141   1.376   2.239   3.138   1.338   0.108   3.258   1.472   1.964

   3.152   1.336   1.906   3.244   1.390   0.645   3.139   1.391   0.645   3.155

   1.381   1.722   3.112   1.086   2.102   0.147   1.063   2.191   3.149   1.086

   2.066   3.142   1.059   2.238   0.001   1.084   2.131   3.142   1.081   2.066

   6.282   1.110   1.916   2.026   1.110   1.917   4.247   1.112   1.991   6.280

   1.111   1.922   2.080   1.111   1.922   4.203   1.111   1.922   2.080   1.110

   1.922   4.203   1.110   1.926   1.060   1.111   1.923   5.212   1.109   1.901

   3.137
 GRADIENT          0.000   0.000  -0.000-384.991   0.000   0.000  45.059  80.765
   0.000  22.830  44.710   5.630 -79.664 -81.035   0.953  42.210-892.1998556.441

 -14.843 -64.147  15.951 -57.204  18.911  19.069  -2.830 -92.157  16.266   9.465

 -21.532   6.686  -5.252 124.545  -2.987  20.969 -25.292  -0.175  75.560********

8547.781 -12.976 -99.958  -0.581  -5.365-100.248   0.738  -9.089  49.619  -0.350

  15.785 -22.568  -0.155  10.236  34.651  -0.519 -39.643-107.669   0.216 -12.604

 -15.472  -0.520 -35.296 -24.292  -0.083 -93.163  87.050  -1.404   3.323 -18.127

   0.456-112.854 -49.597   0.339 -30.526 -53.937   0.044 -28.473 -54.578   0.034

 -22.167  26.407  -0.019 -13.680   7.177  12.890 -23.494  22.390   0.178  -8.409

  -3.692  -0.014 -17.037  17.015   0.144  -5.386   4.311  -0.175  -6.335  -6.442

  -0.005  -0.264  -2.726  -7.225  -0.207  -2.801   7.423   1.066   5.685  -0.262

   0.378   3.297   5.634   0.277   3.283  -5.642   0.484   3.173   5.457   0.428

   3.229  -5.487   5.003  -1.192  -0.155   5.027  -1.381   0.023   7.277  16.147

   0.074
       HoF         ACTUAL,  PREDICTED ENERGY CHANGE, RATIO
   105.0749966    -0.8894293          -3.1177499    0.2852792
     STEPSIZE USED IS  0.00625
 CALCULATED STEP
    -0.000055 -0.000530 -0.000033  0.001108 -0.000319  0.000062 -0.000802 -0.000643
     0.000087 -0.000601  0.000104  0.000221  0.000718  0.001083 -0.000021 -0.001091
    -0.001434  0.000319  0.000040  0.001191 -0.000096  0.000826 -0.000441 -0.000096
    -0.000294  0.001680 -0.000078 -0.000429  0.000173 -0.000062 -0.000083 -0.002850
    -0.000049 -0.000758  0.000742 -0.000068  0.000578 -0.000594  0.000459  0.000006
     0.001051 -0.000034 -0.000169  0.001740 -0.000080 -0.000157 -0.000618  0.000007
    -0.000553  0.000252 -0.000076 -0.000379 -0.000783 -0.000074  0.000117  0.001412
    -0.000038 -0.000114 -0.000154 -0.000072  0.000130  0.000083 -0.000078  0.001188
    -0.001633  0.000032 -0.000375  0.000040 -0.000065  0.001121  0.000675 -0.000066
     0.000169  0.000504 -0.000006  0.000159  0.000527 -0.000007 -0.000030 -0.000538
    -0.000055  0.000108 -0.000204 -0.000023  0.000193 -0.000348 -0.000028  0.000023
    -0.000037 -0.000023  0.000146 -0.000324 -0.000027 -0.000036 -0.000115 -0.000024
    -0.000048  0.000051 -0.000024 -0.000079 -0.000046  0.000072 -0.000104 -0.000017
    -0.000114 -0.000143 -0.000095 -0.000024 -0.000086 -0.000121 -0.000092 -0.000108
    -0.000093  0.000047 -0.000087 -0.000120 -0.000089 -0.000109 -0.000093  0.000046
    -0.000134 -0.000078 -0.000020 -0.000179 -0.000021 -0.000022 -0.000184 -0.000268
    -0.000023
     NEW TRUST RADIUS =  0.00625

     HESSIAN IS BEING UPDATED USING THE BFGS UPDATE

*REMARK   3 HET = Not identified; C 21 H 16 N O 5    =    43 atoms res:    1
 PM7 CHARGE=+1 EF NOXYZ PRNT=2 PDBOUT COMPFG GRAPHF
 15-methoxy-24-methyl-5,7,18,20-tetraoxa-24-azoniahexacyclo[11.11.0.02,10.04,8.014,22.017,21]tetracosa-1(13),2,4(8),9,11,14,16,21,23-nonaene

  O(HETATM    1  O1  HET A   1)  -0.00005548 +1   -0.0005301 +1   -0.0000332 +1
  O(HETATM    2  O2  HET A   1)   2.22308220 +1   -0.0182996 +1    0.0035787 +1     1     0     0
  O(HETATM    3  O3  HET A   1)   4.81748229 +1   94.0005125 +1    0.0050126 +1     2     1     0
  O(HETATM    4  O4  HET A   1)   9.10014106 +1  103.9525077 +1    0.1808454 +1     3     2     1
  O(HETATM    5  O5  HET A   1)   2.22567623 +1   77.0061679 +1 -179.0355351 +1     4     3     2
  N(HETATM    6  N   HET A   1)   4.26776526 +1  125.4090241 +1    0.0138674 +1     1     2     3
  C(HETATM    7  C1  HET A   1)   1.39953518 +1  121.6031849 +1    0.5987801 +1     6     1     2
  C(HETATM    8  C2  HET A   1)   1.46176921 +1  117.6792348 +1   -0.0340698 +1     7     6     1
  C(HETATM    9  C3  HET A   1)   1.44924553 +1  120.6370082 +1   -0.4136849 +1     8     7     6
  C(HETATM   10  C4  HET A   1)   1.41773418 +1  116.7957987 +1    0.6341590 +1     9     8     7
  C(HETATM   11  C5  HET A   1)   1.47303026 +1  124.1339824 +1  179.9546635 +1     7     6     1
  C(HETATM   12  C6  HET A   1)   1.44150308 +1  118.7205828 +1 -179.5587069 +1    11     7     6
  C(HETATM   13  C7  HET A   1)   4.56599335 +1   31.2596972 +1   -0.0054385 +1     2     1     3
  C(HETATM   14  C8  HET A   1)   1.33907661 +1   70.9163564 +1    0.1936833 +1     1     2     3
  C(HETATM   15  C9  HET A   1)   1.41263969 +1  118.4894424 +1  179.4812044 +1     8     7     6
  C(HETATM   16  C10 HET A   1)   1.35597895 +1   28.9034804 +1   -0.7809310 +1     3     2     1
  C(HETATM   17  C11 HET A   1)   1.36988134 +1  122.9590626 +1    0.2068268 +1    15     8     7
  C(HETATM   18  C12 HET A   1)   1.44050016 +1  126.5446038 +1    0.4936259 +1    11     7     6
  C(HETATM   19  C13 HET A   1)   1.33586565 +1   70.5306847 +1   -0.1793170 +1     2     1     3
  C(HETATM   20  C14 HET A   1)   1.41447246 +1  122.3746270 +1  179.9571343 +1    12    11     7
  C(HETATM   21  C15 HET A   1)   1.37596961 +1  128.2927792 +1  179.8195028 +1    19     2     1
  C(HETATM   22  C16 HET A   1)   1.33803061 +1    6.2035178 +1 -173.3457686 +1     4     3     2
  C(HETATM   23  C17 HET A   1)   1.47151776 +1  112.5406425 +1 -179.4311491 +1     6     1     2
  C(HETATM   24  C18 HET A   1)   1.33614154 +1  109.2195225 +1 -174.1159469 +1    22     4     3
  C(HETATM   25  C19 HET A   1)   1.38998738 +1   36.9840611 +1  179.8591679 +1     2     1     3
  C(HETATM   26  C20 HET A   1)   1.39117294 +1   36.9413179 +1 -179.2559793 +1     5     4     3
  C(HETATM   27  C21 HET A   1)   1.38081863 +1   98.6614840 +1  178.3311346 +1     3     2     1
  H(HETATM   28  H7  HET A   1)   1.08641518 +1  120.4329774 +1    8.4235608 +1    13     6     1
  H(HETATM   29  H9  HET A   1)   1.06298994 +1  125.5565066 +1 -179.5567819 +1    15     8     7
  H(HETATM   30  H11 HET A   1)   1.08593358 +1  118.3554786 +1 -179.9500096 +1    17    15     8
  H(HETATM   31  H12 HET A   1)   1.05861530 +1  128.2532970 +1    0.0858353 +1    18    11     7
  H(HETATM   32  H14 HET A   1)   1.08408039 +1  122.1248897 +1 -179.9696788 +1    20    12    11
  H(HETATM   33  H15 HET A   1)   1.08106863 +1  118.3737283 +1   -0.0785517 +1    21    19     2
  H(HETATM   34 1H17 HET A   1)   1.11005900 +1  109.7670527 +1  116.0796902 +1    23     6     1
  H(HETATM   35 2H17 HET A   1)   1.11001443 +1  109.8235082 +1 -116.6556877 +1    23     6     1
  H(HETATM   36 3H17 HET A   1)   1.11217981 +1  114.0699188 +1   -0.2059338 +1    23     6     1
  H(HETATM   37 1H19 HET A   1)   1.11062321 +1  110.1279247 +1  119.1683111 +1    25     2     1
  H(HETATM   38 2H19 HET A   1)   1.11051413 +1  110.1256942 +1 -119.1592405 +1    25     2     1
  H(HETATM   39 1H20 HET A   1)   1.11068612 +1  110.0999704 +1  119.1839274 +1    26     5     4
  H(HETATM   40 2H20 HET A   1)   1.11047615 +1  110.1252487 +1 -119.1983393 +1    26     5     4
  H(HETATM   41 1H21 HET A   1)   1.11047125 +1  110.3545516 +1   60.7572683 +1    27     3     2
  H(HETATM   42 2H21 HET A   1)   1.11078707 +1  110.1944164 +1  -61.3909945 +1    27     3     2
  H(HETATM   43 3H21 HET A   1)   1.10900477 +1  108.9434499 +1  179.7607193 +1    27     3     2

 XPARAM 
  1  1   -0.0001  1  2   -0.0005  1  3   -0.0000  2  1    2.2231  2  2   -0.0003
  2  3    0.0001  3  1    4.8175  3  2    1.6406  3  3    0.0001  4  1    9.1001
  4  2    1.8143  4  3    0.0032  5  1    2.2257  5  2    1.3440  5  3    3.1584
  6  1    4.2678  6  2    2.1888  6  3    6.2834  7  1    1.3995  7  2    2.1224
  7  3    0.0105  8  1    1.4618  8  2    2.0539  8  3    6.2826  9  1    1.4492
  9  2    2.1055  9  3    6.2760 10  1    1.4177 10  2    2.0385 10  3    0.0111
 11  1    1.4730 11  2    2.1665 11  3    3.1408 12  1    1.4415 12  2    2.0721
 12  3    3.1493 13  1    4.5660 13  2    0.5456 13  3    6.2831 14  1    1.3391
 14  2    1.2377 14  3    0.0034 15  1    1.4126 15  2    2.0680 15  3    3.1325
 16  1    1.3560 16  2    0.5045 16  3    6.2696 17  1    1.3699 17  2    2.1460
 17  3    0.0036 18  1    1.4405 18  2    2.2086 18  3    0.0086 19  1    1.3359
 19  2    1.2310 19  3    6.2801 20  1    1.4145 20  2    2.1358 20  3    3.1408
 21  1    1.3760 21  2    2.2391 21  3    3.1384 22  1    1.3380 22  2    0.1083
 22  3    3.2577 23  1    1.4715 23  2    1.9642 23  3    3.1515 24  1    1.3361
 24  2    1.9062 24  3    3.2443 25  1    1.3900 25  2    0.6455 25  3    3.1391
 26  1    1.3912 26  2    0.6447 26  3    3.1546 27  1    1.3808 27  2    1.7220
 27  3    3.1125 28  1    1.0864 28  2    2.1020 28  3    0.1470 29  1    1.0630
 29  2    2.1914 29  3    3.1493 30  1    1.0859 30  2    2.0657 30  3    3.1425
 31  1    1.0586 31  2    2.2384 31  3    0.0015 32  1    1.0841 32  2    2.1315
 32  3    3.1421 33  1    1.0811 33  2    2.0660 33  3    6.2818 34  1    1.1101
 34  2    1.9158 34  3    2.0260 35  1    1.1100 35  2    1.9168 35  3    4.2472
 36  1    1.1122 36  2    1.9909 36  3    6.2796 37  1    1.1106 37  2    1.9221
 37  3    2.0799 38  1    1.1105 38  2    1.9221 38  3    4.2035 39  1    1.1107
 39  2    1.9216 39  3    2.0802 40  1    1.1105 40  2    1.9220 40  3    4.2028
 41  1    1.1105 41  2    1.9261 41  3    1.0604 42  1    1.1108 42  2    1.9233
 42  3    5.2117 43  1    1.1090 43  2    1.9014 43  3    3.1374
 grad
       0.00001    0.00001   -0.00000 -384.99096    0.00000    0.00000   45.05872   80.76510
       0.00000   22.82999   44.71048    5.63012  -79.66423  -81.03510    0.95311   42.21022
    -892.19855 8556.44143  -14.84307  -64.14705   15.95112  -57.20437   18.91051   19.06911
      -2.82976  -92.15657   16.26633    9.46540  -21.53187    6.68566   -5.25242  124.54532
      -2.98734   20.96927  -25.29160   -0.17498   75.56006-1452.81887 8547.78053  -12.97630
     -99.95794   -0.58122   -5.36457 -100.24843    0.73783   -9.08949   49.61915   -0.34994
      15.78471  -22.56848   -0.15477   10.23589   34.65149   -0.51858  -39.64322 -107.66851
       0.21578  -12.60387  -15.47153   -0.52031  -35.29564  -24.29179   -0.08324  -93.16328
      87.04969   -1.40388    3.32277  -18.12674    0.45614 -112.85376  -49.59704    0.33946
     -30.52552  -53.93668    0.04370  -28.47339  -54.57840    0.03371  -22.16722   26.40664
      -0.01902  -13.67991    7.17694   12.88965  -23.49386   22.39019    0.17821   -8.40871
      -3.69233   -0.01368  -17.03742   17.01520    0.14380   -5.38631    4.31091   -0.17526
      -6.33516   -6.44244   -0.00460   -0.26395   -2.72617   -7.22529   -0.20659   -2.80133
       7.42272    1.06612    5.68462   -0.26175    0.37828    3.29667    5.63359    0.27674
       3.28341   -5.64206    0.48420    3.17260    5.45717    0.42828    3.22924   -5.48670
       5.00298   -1.19152   -0.15527    5.02727   -1.38061    0.02316    7.27748   16.14721
       0.07390
 CYCLE:     2 TIME:   0.180 TIME LEFT:  2.00D  GRAD.: 12226.285 HEAT:  105.0750

          HESSIAN HAS  0 NEGATIVE EIGENVALUE(S)
  MIN SEARCH, CORRECT HESSIAN, TRYING PURE NR STEP
 LAMBDA THAT MINIMIZES ALONG ALL MODES =        0.000000000
 PURE NR-STEP HAS LENGTH 133.88261
 LAMBDA THAT MINIMIZES ALONG ALL MODES =     -499.209141295
 P-RFO-STEP   HAS LENGTH   0.98679
 LAMBDA THAT MINIMIZES ALONG ALL MODES =   -80103.577227973
 QA/TRIM-STEP HAS LENGTH   0.00625

  HEAT OF FORMATION        210.77824689468252    
 PARAMETERS       -0.000  -0.001  -0.000   2.224  -0.001   0.000   4.817   1.640
   0.000   9.100   1.814   0.004   2.226   1.345   3.159   4.267   2.187   6.283

   1.400   2.124   0.010   1.463   2.053   6.283   1.449   2.107   6.276   1.417

   2.039   0.011   1.473   2.164   3.141   1.441   2.073   3.149   4.566   0.545

   6.282   1.339   1.239   0.003   1.412   2.070   3.133   1.356   0.504   6.270

   1.369   2.146   0.004   1.440   2.208   0.009   1.336   1.232   6.280   1.414

   2.136   3.141   1.376   2.239   3.138   1.339   0.107   3.258   1.471   1.964

   3.152   1.337   1.907   3.244   1.390   0.646   3.139   1.391   0.645   3.155

   1.381   1.721   3.112   1.087   2.102   0.147   1.063   2.191   3.149   1.086

   2.066   3.142   1.059   2.238   0.001   1.084   2.131   3.142   1.081   2.066

   6.282   1.110   1.916   2.026   1.110   1.917   4.247   1.112   1.991   6.280

   1.111   1.922   2.080   1.110   1.922   4.204   1.111   1.921   2.080   1.110

   1.922   4.203   1.110   1.926   1.060   1.111   1.923   5.212   1.109   1.901

   3.137
 GRADIENT         -0.000   0.000  -0.000********   0.000   0.000  39.846 123.445
   0.000  12.052  67.713   2.726 -76.266 -63.591   0.658  51.298****************

 -77.356-186.848-113.087-117.837-265.205-190.123  -2.298-270.455-186.579  66.829

 -78.486 -94.371   8.726  40.082  -0.324   8.599  25.093   0.777****************

********   1.246 -44.497 -16.716   0.286 -55.190  -0.713  -1.951  55.346  -0.226

   7.618  -1.739   0.303  11.327  37.216  -0.271 -37.309 -97.303   0.848  -5.049

 -30.102  -0.324 -33.210 -26.179   0.205 -72.606  56.335  -0.698   9.661  -6.631

  -1.257-107.389 -26.797   0.034 -30.515 -51.959  -0.559 -26.958 -51.360   0.146

 -22.940  25.887  -0.335 -98.358  36.304-132.790 -23.549  22.045   0.008  -7.813

  -4.952  -0.383 -17.650  17.026   0.186  -5.971   4.624  -0.068  -6.717  -6.838

  -0.166   0.695  -2.482  -6.873   0.472  -2.428   5.569  -0.930  10.232   0.722

   0.012   3.194   5.570   0.202   3.116  -5.390   0.506   3.055   5.554   0.358

   3.127  -5.599   4.738  -1.203  -0.259   4.925  -1.450   0.091   7.006  16.172

   0.120
       HoF         ACTUAL,  PREDICTED ENERGY CHANGE, RATIO
   210.7782469   105.7032502          -7.7831596  -13.5810205
 UNACCEPTABLE RATIO, REJECTING STEP, REDUCING DMAX TO 0.0031
  MIN SEARCH, CORRECT HESSIAN, TRYING PURE NR STEP
 LAMBDA THAT MINIMIZES ALONG ALL MODES =        0.000000000
 PURE NR-STEP HAS LENGTH 133.88261
 LAMBDA THAT MINIMIZES ALONG ALL MODES =     -499.209141295
 P-RFO-STEP   HAS LENGTH   0.98679
 LAMBDA THAT MINIMIZES ALONG ALL MODES =  -164473.761285053
 QA/TRIM-STEP HAS LENGTH   0.00312

  HEAT OF FORMATION        124.96049037091143    
 PARAMETERS       -0.000  -0.001  -0.000   2.224  -0.000   0.000   4.817   1.640
   0.000   9.100   1.814   0.003   2.226   1.345   3.158   4.267   2.188   6.283

   1.400   2.123   0.010   1.462   2.054   6.283   1.449   2.106   6.276   1.418

   2.039   0.011   1.473   2.165   3.141   1.441   2.072   3.149   4.566   0.545

   6.283   1.339   1.238   0.003   1.413   2.069   3.133   1.356   0.504   6.270

   1.370   2.146   0.004   1.440   2.208   0.009   1.336   1.232   6.280   1.414

   2.136   3.141   1.376   2.239   3.138   1.339   0.107   3.258   1.471   1.964

   3.152   1.337   1.907   3.244   1.390   0.646   3.139   1.391   0.645   3.155

   1.381   1.722   3.112   1.086   2.102   0.147   1.063   2.191   3.149   1.086

   2.066   3.142   1.059   2.238   0.001   1.084   2.131   3.142   1.081   2.066

   6.282   1.110   1.916   2.026   1.110   1.917   4.247   1.112   1.991   6.280

   1.111   1.922   2.080   1.110   1.922   4.204   1.111   1.922   2.080   1.110

   1.922   4.203   1.110   1.926   1.060   1.111   1.923   5.212   1.109   1.901

   3.137
 GRADIENT         -0.000   0.000  -0.000********   0.000   0.000  42.912  98.574
   0.000  17.188  53.068   2.855 -78.234 -73.418   0.746  45.476****************

 -24.373 -75.499 -52.136 -63.935 -52.339 -72.402  -2.088-127.716 -69.260  24.070

 -33.903 -33.494   1.804  83.942  -0.699  15.064  -0.425   0.7266274.104********

******** -14.818 -93.268   0.116  -2.221 -77.404  -0.519  -6.075  53.432  -1.198

  11.496 -12.080   0.191  11.428  36.270  -0.223 -38.860-103.672   0.262  -8.883

 -22.568  -0.286 -34.328 -25.303  -0.176 -82.920  72.211  -0.843   5.954 -12.543

  -2.210-109.728 -38.772   0.015 -30.778 -52.144  -0.292 -27.586 -53.074   0.116

 -22.431  26.114  -0.271 -26.270  14.436 -53.152 -23.468  22.287   0.104  -8.108

  -4.325  -0.309 -17.099  16.911   0.133  -5.695   4.446  -0.047  -6.129  -6.641

  -0.148  -0.138  -3.007  -7.650  -0.122  -2.513   6.518   0.487   7.317   0.907

   0.308   3.302   5.684   0.380   3.288  -5.535   0.507   3.109   5.514   0.393

   3.176  -5.551   4.890  -1.186  -0.150   5.000  -1.358   0.001   7.196  16.084

   0.095
       HoF         ACTUAL,  PREDICTED ENERGY CHANGE, RATIO
   124.9604904    19.8854937          -6.2049262   -3.2047913
 UNACCEPTABLE RATIO, REJECTING STEP, REDUCING DMAX TO 0.0016
  MIN SEARCH, CORRECT HESSIAN, TRYING PURE NR STEP
 LAMBDA THAT MINIMIZES ALONG ALL MODES =        0.000000000
 PURE NR-STEP HAS LENGTH 133.88261
 LAMBDA THAT MINIMIZES ALONG ALL MODES =     -499.209141295
 P-RFO-STEP   HAS LENGTH   0.98679
 LAMBDA THAT MINIMIZES ALONG ALL MODES =  -369713.583279855
 QA/TRIM-STEP HAS LENGTH   0.00156

  HEAT OF FORMATION        110.04657604404201    
 PARAMETERS       -0.000  -0.001  -0.000   2.223  -0.000   0.000   4.817   1.640
   0.000   9.100   1.814   0.003   2.226   1.344   3.158   4.267   2.189   6.283

   1.400   2.123   0.010   1.462   2.054   6.283   1.449   2.106   6.276   1.418

   2.039   0.011   1.473   2.166   3.141   1.441   2.072   3.149   4.566   0.546

   6.283   1.339   1.238   0.003   1.413   2.068   3.133   1.356   0.504   6.270

   1.370   2.146   0.004   1.440   2.208   0.009   1.336   1.231   6.280   1.414

   2.136   3.141   1.376   2.239   3.138   1.338   0.108   3.258   1.471   1.964

   3.152   1.336   1.906   3.244   1.390   0.646   3.139   1.391   0.645   3.155

   1.381   1.722   3.112   1.086   2.102   0.147   1.063   2.191   3.149   1.086

   2.066   3.142   1.059   2.238   0.002   1.084   2.131   3.142   1.081   2.066

   6.282   1.110   1.916   2.026   1.110   1.917   4.247   1.112   1.991   6.280

   1.111   1.922   2.080   1.110   1.922   4.203   1.111   1.922   2.080   1.110

   1.922   4.203   1.110   1.926   1.060   1.111   1.923   5.212   1.109   1.901

   3.137
 GRADIENT         -0.000   0.000  -0.000********   0.000   0.000  43.785  89.168
   0.000  20.064  46.862   3.008 -79.193 -78.313   0.797  45.236****************

 -16.424 -62.322 -27.660 -57.318  -4.416 -35.893  -2.945-101.812 -34.204  13.253

 -25.423 -16.339  -1.746 106.423  -1.160  18.279 -13.959   0.3811793.962********

******** -14.104 -98.656   0.596  -3.769 -89.754  -0.101  -7.596  50.833  -1.008

  13.725 -17.765   0.075  11.078  35.729  -0.250 -38.881-106.778   0.325 -11.004

 -18.675  -0.240 -34.536 -24.461  -0.183 -88.427  80.678  -0.918   4.247 -16.187

  -0.818-111.250 -44.984  -0.000 -30.706 -53.086  -0.171 -27.998 -53.966   0.098

 -22.325  26.238  -0.196 -16.829   9.306 -27.650 -23.413  22.330   0.132  -8.288

  -3.973  -0.207 -17.008  16.962   0.105  -5.548   4.366  -0.058  -6.200  -6.526

  -0.102  -0.236  -2.936  -7.627  -0.207  -2.613   6.904   0.886   6.206   0.778

   0.328   3.307   5.680   0.346   3.308  -5.568   0.506   3.136   5.489   0.411

   3.199  -5.521   4.942  -1.187  -0.152   5.023  -1.360   0.009   7.233  16.110

   0.088
       HoF         ACTUAL,  PREDICTED ENERGY CHANGE, RATIO
   110.0465760     4.9715794          -5.3708248   -0.9256640
 UNACCEPTABLE RATIO, REJECTING STEP, REDUCING DMAX TO 0.0008
  MIN SEARCH, CORRECT HESSIAN, TRYING PURE NR STEP
 LAMBDA THAT MINIMIZES ALONG ALL MODES =        0.000000000
 PURE NR-STEP HAS LENGTH 133.88261
 LAMBDA THAT MINIMIZES ALONG ALL MODES =     -499.209141295
 P-RFO-STEP   HAS LENGTH   0.98679
 NUMERICAL PROBLEMS IN BRACKETING LAMBDA   3.7064712361452994       -1000000.0000000000        3.7064712361352994        2.2223876345769189E-007   1.3542885153042504E+027
  GOING FOR FIXED LEVEL SHIFTED NR STEP...
 LAMBDA THAT MINIMIZES ALONG ALL MODES =       -6.293528764
 P-RFO-STEP   HAS LENGTH   1.97358
     CALCULATED STEP SIZE TOO LARGE, SCALED WITH  0.00040

  HEAT OF FORMATION        104.86335821796092    
 PARAMETERS       -0.000  -0.001  -0.000   2.223  -0.000   0.000   4.817   1.641
   0.000   9.100   1.814   0.003   2.226   1.344   3.158   4.268   2.189   6.283

   1.400   2.122   0.010   1.462   2.054   6.283   1.449   2.106   6.276   1.418

   2.038   0.011   1.473   2.166   3.141   1.441   2.072   3.149   4.566   0.546

   6.283   1.339   1.238   0.003   1.413   2.068   3.133   1.356   0.504   6.270

   1.370   2.146   0.004   1.440   2.209   0.009   1.336   1.231   6.280   1.414

   2.136   3.141   1.376   2.239   3.138   1.338   0.108   3.258   1.471   1.964

   3.152   1.336   1.906   3.244   1.390   0.646   3.139   1.391   0.645   3.155

   1.381   1.722   3.112   1.086   2.102   0.147   1.063   2.191   3.149   1.086

   2.066   3.142   1.059   2.238   0.001   1.084   2.131   3.142   1.081   2.066

   6.282   1.110   1.916   2.026   1.110   1.917   4.247   1.112   1.991   6.280

   1.111   1.922   2.080   1.111   1.922   4.203   1.111   1.922   2.080   1.110

   1.922   4.203   1.110   1.926   1.060   1.111   1.923   5.212   1.109   1.901

   3.137
 GRADIENT          0.000   0.000  -0.000-399.031   0.000   0.000  44.399  81.642
   0.000  21.952  43.759   5.621 -79.678 -80.726   0.950  43.860-941.7829346.877

 -13.245 -60.127  15.866 -55.494  17.405  18.975  -2.965 -91.089  16.237   8.883

 -21.903   6.686  -4.203 119.789  -2.990  20.242 -22.104  -0.187  82.070********

9338.177 -13.573-100.532  -0.577  -4.820 -97.109   0.735  -8.327  49.861  -0.341

  15.110 -21.152  -0.161  10.811  35.260  -0.528 -38.938-108.242   0.225 -12.135

 -16.339  -0.519 -34.847 -24.083  -0.084 -91.687  85.364  -1.382   3.412 -18.177

   0.498-112.133 -48.484   0.336 -30.633 -53.644   0.042 -28.256 -54.437   0.033

 -22.250  26.327  -0.027 -13.519   7.008  12.646 -23.417  22.360   0.177  -8.401

  -3.773  -0.014 -16.994  16.993   0.146  -5.453   4.317  -0.179  -6.257  -6.462

  -0.005  -0.279  -2.726  -7.229  -0.226  -2.817   7.428   1.046   5.663  -0.256

   0.382   3.315   5.623   0.281   3.302  -5.633   0.488   3.155   5.473   0.432

   3.213  -5.502   4.991  -1.182  -0.150   5.015  -1.369   0.018   7.258  16.131

   0.074
       HoF         ACTUAL,  PREDICTED ENERGY CHANGE, RATIO
   104.8633582    -0.2116384          -9.7508878    0.0217045
     STEPSIZE USED IS  0.00039
 CALCULATED STEP
    -0.000003 -0.000033 -0.000002  0.000070 -0.000020  0.000007 -0.000049 -0.000041
     0.000013 -0.000037  0.000006  0.000029  0.000045  0.000068  0.000002 -0.000069
    -0.000089 -0.000014  0.000003  0.000075 -0.000004  0.000051 -0.000028 -0.000004
    -0.000019  0.000105 -0.000003 -0.000026  0.000011 -0.000002 -0.000005 -0.000179
    -0.000001 -0.000048  0.000046 -0.000002  0.000035 -0.000035 -0.000006  0.000001
     0.000066 -0.000000 -0.000011  0.000109 -0.000003 -0.000011 -0.000039  0.000002
    -0.000034  0.000016 -0.000003 -0.000023 -0.000049 -0.000003  0.000006  0.000088
    -0.000001 -0.000007 -0.000010 -0.000003  0.000008  0.000005 -0.000003  0.000074
    -0.000103  0.000004 -0.000024  0.000002 -0.000002  0.000070  0.000042 -0.000002
     0.000010  0.000032  0.000001  0.000010  0.000033  0.000001 -0.000002 -0.000034
    -0.000002  0.000007 -0.000013 -0.000001  0.000012 -0.000022 -0.000001  0.000001
    -0.000002 -0.000001  0.000009 -0.000020 -0.000001 -0.000002 -0.000007 -0.000001
    -0.000003  0.000003 -0.000001 -0.000005 -0.000003  0.000005 -0.000007 -0.000001
    -0.000007 -0.000009 -0.000006 -0.000001 -0.000005 -0.000008 -0.000005 -0.000007
    -0.000006  0.000003 -0.000005 -0.000008 -0.000005 -0.000007 -0.000006  0.000003
    -0.000008 -0.000005 -0.000001 -0.000011 -0.000001 -0.000001 -0.000012 -0.000017
    -0.000001
     NEW TRUST RADIUS =  0.00078
*REMARK   3 HET = Not identified; C 21 H 16 N O 5    =    43 atoms res:    1
 PM7 CHARGE=+1 EF NOXYZ PRNT=2 PDBOUT COMPFG GRAPHF
 15-methoxy-24-methyl-5,7,18,20-tetraoxa-24-azoniahexacyclo[11.11.0.02,10.04,8.014,22.017,21]tetracosa-1(13),2,4(8),9,11,14,16,21,23-nonaene

  O(HETATM    1  O1  HET A   1)  -0.00005815 +1   -0.0005632 +1   -0.0000355 +1
  O(HETATM    2  O2  HET A   1)   2.22315262 +1   -0.0194544 +1    0.0039974 +1     1     0     0
  O(HETATM    3  O3  HET A   1)   4.81743302 +1   93.9981706 +1    0.0057695 +1     2     1     0
  O(HETATM    4  O4  HET A   1)   9.10010437 +1  103.9528251 +1    0.1824839 +1     3     2     1
  O(HETATM    5  O5  HET A   1)   2.22572100 +1   77.0100520 +1 -179.0354129 +1     4     3     2
  N(HETATM    6  N   HET A   1)   4.26769595 +1  125.4039479 +1    0.0130373 +1     1     2     3
  C(HETATM    7  C1  HET A   1)   1.39953849 +1  121.6074634 +1    0.5985374 +1     6     1     2
  C(HETATM    8  C2  HET A   1)   1.46181987 +1  117.6776381 +1   -0.0343108 +1     7     6     1
  C(HETATM    9  C3  HET A   1)   1.44922610 +1  120.6430388 +1   -0.4138607 +1     8     7     6
  C(HETATM   10  C4  HET A   1)   1.41770815 +1  116.7964206 +1    0.6340435 +1     9     8     7
  C(HETATM   11  C5  HET A   1)   1.47302498 +1  124.1237331 +1  179.9545993 +1     7     6     1
  C(HETATM   12  C6  HET A   1)   1.44145557 +1  118.7232405 +1 -179.5588429 +1    11     7     6
  C(HETATM   13  C7  HET A   1)   4.56602832 +1   31.2577015 +1   -0.0057665 +1     2     1     3
  C(HETATM   14  C8  HET A   1)   1.33907772 +1   70.9201381 +1    0.1936614 +1     1     2     3
  C(HETATM   15  C9  HET A   1)   1.41262899 +1  118.4956934 +1  179.4810218 +1     8     7     6
  C(HETATM   16  C10 HET A   1)   1.35596805 +1   28.9012458 +1   -0.7808082 +1     3     2     1
  C(HETATM   17  C11 HET A   1)   1.36984758 +1  122.9599654 +1    0.2066579 +1    15     8     7
  C(HETATM   18  C12 HET A   1)   1.44047726 +1  126.5417845 +1    0.4934704 +1    11     7     6
  C(HETATM   19  C13 HET A   1)   1.33587191 +1   70.5357527 +1   -0.1793566 +1     2     1     3
  C(HETATM   20  C14 HET A   1)   1.41446526 +1  122.3740686 +1  179.9569838 +1    12    11     7
  C(HETATM   21  C15 HET A   1)   1.37597764 +1  128.2930717 +1  179.8193254 +1    19     2     1
  C(HETATM   22  C16 HET A   1)   1.33810467 +1    6.1976415 +1 -173.3455570 +1     4     3     2
  C(HETATM   23  C17 HET A   1)   1.47149417 +1  112.5407813 +1 -179.4312716 +1     6     1     2
  C(HETATM   24  C18 HET A   1)   1.33621151 +1  109.2219453 +1 -174.1160831 +1    22     4     3
  C(HETATM   25  C19 HET A   1)   1.38999781 +1   36.9858700 +1  179.8592478 +1     2     1     3
  C(HETATM   26  C20 HET A   1)   1.39118271 +1   36.9432088 +1 -179.2559038 +1     5     4     3
  C(HETATM   27  C21 HET A   1)   1.38081663 +1   98.6595427 +1  178.3310397 +1     3     2     1
  H(HETATM   28  H7  HET A   1)   1.08642217 +1  120.4322436 +1    8.4234976 +1    13     6     1
  H(HETATM   29  H9  HET A   1)   1.06300199 +1  125.5552524 +1 -179.5568599 +1    15     8     7
  H(HETATM   30  H11 HET A   1)   1.08593497 +1  118.3553446 +1 -179.9500694 +1    17    15     8
  H(HETATM   31  H12 HET A   1)   1.05862469 +1  128.2521321 +1    0.0857605 +1    18    11     7
  H(HETATM   32  H14 HET A   1)   1.08407814 +1  122.1244742 +1 -179.9697427 +1    20    12    11
  H(HETATM   33  H15 HET A   1)   1.08106531 +1  118.3739106 +1   -0.0786135 +1    21    19     2
  H(HETATM   34 1H17 HET A   1)   1.11005412 +1  109.7668866 +1  116.0799769 +1    23     6     1
  H(HETATM   35 2H17 HET A   1)   1.11000782 +1  109.8234444 +1 -116.6560786 +1    23     6     1
  H(HETATM   36 3H17 HET A   1)   1.11217057 +1  114.0695752 +1   -0.2059966 +1    23     6     1
  H(HETATM   37 1H19 HET A   1)   1.11061790 +1  110.1274885 +1  119.1680029 +1    25     2     1
  H(HETATM   38 2H19 HET A   1)   1.11050726 +1  110.1253585 +1 -119.1590431 +1    25     2     1
  H(HETATM   39 1H20 HET A   1)   1.11068074 +1  110.0995384 +1  119.1836290 +1    26     5     4
  H(HETATM   40 2H20 HET A   1)   1.11046922 +1  110.1249140 +1 -119.1981490 +1    26     5     4
  H(HETATM   41 1H21 HET A   1)   1.11046302 +1  110.3542702 +1   60.7572196 +1    27     3     2
  H(HETATM   42 2H21 HET A   1)   1.11077567 +1  110.1943389 +1  -61.3910494 +1    27     3     2
  H(HETATM   43 3H21 HET A   1)   1.10899321 +1  108.9424833 +1  179.7606620 +1    27     3     2

 XPARAM 
  1  1   -0.0001  1  2   -0.0006  1  3   -0.0000  2  1    2.2232  2  2   -0.0003
  2  3    0.0001  3  1    4.8174  3  2    1.6406  3  3    0.0001  4  1    9.1001
  4  2    1.8143  4  3    0.0032  5  1    2.2257  5  2    1.3441  5  3    3.1584
  6  1    4.2677  6  2    2.1887  6  3    6.2834  7  1    1.3995  7  2    2.1225
  7  3    0.0104  8  1    1.4618  8  2    2.0539  8  3    6.2826  9  1    1.4492
  9  2    2.1056  9  3    6.2760 10  1    1.4177 10  2    2.0385 10  3    0.0111
 11  1    1.4730 11  2    2.1664 11  3    3.1408 12  1    1.4415 12  2    2.0721
 12  3    3.1493 13  1    4.5660 13  2    0.5455 13  3    6.2831 14  1    1.3391
 14  2    1.2378 14  3    0.0034 15  1    1.4126 15  2    2.0681 15  3    3.1325
 16  1    1.3560 16  2    0.5044 16  3    6.2696 17  1    1.3698 17  2    2.1461
 17  3    0.0036 18  1    1.4405 18  2    2.2086 18  3    0.0086 19  1    1.3359
 19  2    1.2311 19  3    6.2801 20  1    1.4145 20  2    2.1358 20  3    3.1408
 21  1    1.3760 21  2    2.2391 21  3    3.1384 22  1    1.3381 22  2    0.1082
 22  3    3.2577 23  1    1.4715 23  2    1.9642 23  3    3.1515 24  1    1.3362
 24  2    1.9063 24  3    3.2443 25  1    1.3900 25  2    0.6455 25  3    3.1391
 26  1    1.3912 26  2    0.6448 26  3    3.1546 27  1    1.3808 27  2    1.7219
 27  3    3.1125 28  1    1.0864 28  2    2.1019 28  3    0.1470 29  1    1.0630
 29  2    2.1914 29  3    3.1493 30  1    1.0859 30  2    2.0657 30  3    3.1425
 31  1    1.0586 31  2    2.2384 31  3    0.0015 32  1    1.0841 32  2    2.1315
 32  3    3.1421 33  1    1.0811 33  2    2.0660 33  3    6.2818 34  1    1.1101
 34  2    1.9158 34  3    2.0260 35  1    1.1100 35  2    1.9168 35  3    4.2472
 36  1    1.1122 36  2    1.9909 36  3    6.2796 37  1    1.1106 37  2    1.9221
 37  3    2.0799 38  1    1.1105 38  2    1.9221 38  3    4.2035 39  1    1.1107
 39  2    1.9216 39  3    2.0801 40  1    1.1105 40  2    1.9220 40  3    4.2028
 41  1    1.1105 41  2    1.9260 41  3    1.0604 42  1    1.1108 42  2    1.9233
 42  3    5.2117 43  1    1.1090 43  2    1.9014 43  3    3.1374
 grad
       0.00001    0.00001   -0.00000 -399.03146    0.00000    0.00000   44.39853   81.64194
       0.00000   21.95190   43.75854    5.62077  -79.67796  -80.72615    0.94956   43.85972
    -941.78192 9346.87668  -13.24498  -60.12707   15.86575  -55.49395   17.40519   18.97522
      -2.96514  -91.08920   16.23657    8.88299  -21.90263    6.68560   -4.20278  119.78915
      -2.98979   20.24163  -22.10404   -0.18729   82.07004-1528.83815 9338.17704  -13.57265
    -100.53222   -0.57719   -4.82044  -97.10920    0.73492   -8.32728   49.86092   -0.34114
      15.10973  -21.15222   -0.16144   10.81087   35.25990   -0.52790  -38.93815 -108.24186
       0.22481  -12.13483  -16.33873   -0.51897  -34.84672  -24.08321   -0.08394  -91.68697
      85.36412   -1.38201    3.41154  -18.17742    0.49787 -112.13319  -48.48411    0.33597
     -30.63316  -53.64403    0.04172  -28.25626  -54.43672    0.03281  -22.25032   26.32715
      -0.02674  -13.51911    7.00780   12.64620  -23.41659   22.36001    0.17750   -8.40054
      -3.77346   -0.01382  -16.99363   16.99264    0.14643   -5.45346    4.31676   -0.17908
      -6.25665   -6.46234   -0.00539   -0.27861   -2.72571   -7.22946   -0.22630   -2.81745
       7.42794    1.04586    5.66325   -0.25619    0.38215    3.31541    5.62328    0.28105
       3.30238   -5.63253    0.48828    3.15535    5.47285    0.43162    3.21253   -5.50227
       4.99116   -1.18248   -0.14976    5.01498   -1.36881    0.01760    7.25816   16.13065
       0.07412
 CYCLE:     3 TIME:   0.117 TIME LEFT:  2.00D  GRAD.: 13345.277 HEAT:  104.8634

          HESSIAN HAS  1 NEGATIVE EIGENVALUE(S)*******
 LAMBDA THAT MINIMIZES ALONG ALL MODES =  *****************
 P-RFO-STEP   HAS LENGTH   3.94716
 LAMBDA THAT MINIMIZES ALONG ALL MODES =  *****************
 QA/TRIM-STEP HAS LENGTH   0.00078

  HEAT OF FORMATION        107.43887371590245    
 PARAMETERS       -0.000  -0.001  -0.000   2.223  -0.000   0.000   4.817   1.641
   0.000   9.100   1.814   0.003   2.226   1.344   3.158   4.268   2.189   6.283

   1.400   2.122   0.010   1.462   2.054   6.283   1.449   2.106   6.276   1.418

   2.038   0.011   1.473   2.166   3.141   1.441   2.072   3.149   4.566   0.546

   6.283   1.339   1.238   0.003   1.413   2.068   3.133   1.356   0.504   6.270

   1.370   2.146   0.004   1.441   2.209   0.009   1.336   1.231   6.280   1.414

   2.136   3.141   1.376   2.239   3.138   1.338   0.108   3.258   1.471   1.964

   3.152   1.336   1.906   3.244   1.390   0.646   3.139   1.391   0.645   3.155

   1.381   1.722   3.112   1.086   2.102   0.147   1.063   2.191   3.149   1.086

   2.066   3.142   1.059   2.238   0.002   1.084   2.131   3.142   1.081   2.066

   6.282   1.110   1.916   2.026   1.110   1.917   4.247   1.112   1.991   6.280

   1.111   1.922   2.080   1.111   1.922   4.203   1.111   1.922   2.080   1.110

   1.922   4.203   1.110   1.926   1.060   1.111   1.923   5.212   1.109   1.901

   3.137
 GRADIENT          0.000   0.000  -0.000********   0.000   0.000  44.433  82.530
   0.000  21.770  43.711   3.175 -79.672 -80.712   0.825  44.642****************

 -15.532 -66.019 -20.793 -59.584   7.469 -26.681  -3.650 -99.627 -25.622  11.624

 -24.777 -12.298  -4.216 119.712  -1.352  20.237 -21.960   0.279 995.144********

******** -13.668-100.266   0.535  -4.823 -97.360   0.043  -8.436  49.909  -0.942

  15.164 -21.257   0.046  10.919  35.364  -0.258 -39.124-108.015   0.323 -12.092

 -16.478  -0.237 -34.951 -24.244  -0.180 -91.507  85.250  -0.972   3.857 -17.207

  -0.524-112.125 -48.355   0.003 -30.686 -53.579  -0.136 -28.282 -54.468   0.093

 -22.263  26.319  -0.166 -15.181   8.276 -20.832 -23.431  22.361   0.140  -8.420

  -3.767  -0.176 -17.007  16.998   0.097  -5.464   4.319  -0.061  -6.261  -6.469

  -0.088  -0.246  -2.902  -7.598  -0.209  -2.633   7.016   0.983   5.940   0.664

   0.332   3.308   5.669   0.333   3.306  -5.575   0.498   3.153   5.470   0.410

   3.215  -5.502   4.964  -1.186  -0.153   5.038  -1.363   0.012   7.256  16.131

   0.085
       HoF         ACTUAL,  PREDICTED ENERGY CHANGE, RATIO
   107.4388737     2.5755155         -50.7117695   -0.0507873
 UNACCEPTABLE RATIO, REJECTING STEP, REDUCING DMAX TO 0.0004
 LAMBDA THAT MINIMIZES ALONG ALL MODES =  *****************
 P-RFO-STEP   HAS LENGTH   0.00156
 LAMBDA THAT MINIMIZES ALONG ALL MODES =  *****************
 QA/TRIM-STEP HAS LENGTH   0.00039

  HEAT OF FORMATION        103.65423992311116    
 PARAMETERS       -0.000  -0.001  -0.000   2.223  -0.000   0.000   4.817   1.641
   0.000   9.100   1.814   0.003   2.226   1.344   3.158   4.268   2.189   6.283

   1.400   2.122   0.010   1.462   2.054   6.283   1.449   2.106   6.276   1.418

   2.038   0.011   1.473   2.166   3.141   1.441   2.072   3.149   4.566   0.546

   6.283   1.339   1.238   0.003   1.413   2.068   3.133   1.356   0.504   6.270

   1.370   2.146   0.004   1.440   2.209   0.009   1.336   1.231   6.280   1.414

   2.136   3.141   1.376   2.239   3.138   1.338   0.108   3.258   1.471   1.964

   3.152   1.336   1.906   3.244   1.390   0.646   3.139   1.391   0.645   3.155

   1.381   1.722   3.112   1.086   2.102   0.147   1.063   2.191   3.149   1.086

   2.066   3.142   1.059   2.238   0.002   1.084   2.131   3.142   1.081   2.066

   6.282   1.110   1.916   2.026   1.110   1.917   4.247   1.112   1.991   6.280

   1.111   1.922   2.080   1.111   1.922   4.203   1.111   1.922   2.080   1.110

   1.922   4.203   1.110   1.926   1.060   1.111   1.923   5.212   1.109   1.901

   3.137
 GRADIENT          0.000   0.000  -0.000-453.212   0.000   0.000  44.487  82.370
   0.000  21.964  44.119   4.467 -79.660 -80.712   0.885  43.666****************

 -12.774 -57.782  -4.604 -54.208  20.604  -6.269  -2.822 -88.427  -6.839   7.960

 -20.760  -3.693  -4.105 119.561  -2.157  20.201 -22.031   0.100 108.678********

******** -13.409-100.384   0.092  -4.811 -97.040   0.340  -8.474  49.791  -0.672

  15.114 -21.118  -0.046  10.710  35.178  -0.389 -39.110-107.983   0.275 -12.183

 -16.348  -0.391 -34.873 -24.157  -0.134 -91.734  85.443  -1.189   3.171 -18.680

  -0.011-112.202 -48.474   0.178 -30.615 -53.660  -0.057 -28.266 -54.429   0.065

 -22.245  26.334  -0.104 -12.809   6.478  -5.648 -23.415  22.360   0.157  -8.384

  -3.773  -0.105 -16.981  16.991   0.124  -5.449   4.322  -0.118  -6.266  -6.465

  -0.051  -0.288  -2.827  -7.463  -0.243  -2.716   7.218   1.071   5.523   0.296

   0.352   3.309   5.657   0.309   3.304  -5.608   0.499   3.155   5.471   0.424

   3.214  -5.502   4.979  -1.187  -0.154   5.031  -1.368   0.017   7.259  16.132

   0.080
       HoF         ACTUAL,  PREDICTED ENERGY CHANGE, RATIO
   103.6542399    -1.2091183         -15.1237142    0.0799485
     STEPSIZE USED IS  0.00039
 CALCULATED STEP
     0.000014  0.000003  0.000010  0.000020 -0.000000  0.000023  0.000016 -0.000004
     0.000040  0.000017 -0.000010  0.000065 -0.000003 -0.000002  0.000024 -0.000020
     0.000012 -0.000258  0.000014  0.000000  0.000017 -0.000018 -0.000003  0.000017
    -0.000018 -0.000003  0.000017  0.000015  0.000001  0.000017 -0.000002 -0.000001
     0.000017 -0.000002 -0.000002  0.000017 -0.000022  0.000023 -0.000260  0.000014
     0.000002  0.000016 -0.000002 -0.000001  0.000017 -0.000020 -0.000003  0.000016
     0.000015  0.000001  0.000017  0.000014  0.000000  0.000017 -0.000019 -0.000002
     0.000016 -0.000002 -0.000001  0.000017 -0.000001 -0.000001  0.000017 -0.000005
    -0.000001  0.000015 -0.000002 -0.000001  0.000017 -0.000002 -0.000001  0.000016
    -0.000003 -0.000001  0.000016 -0.000003 -0.000001  0.000016 -0.000002 -0.000001
     0.000017  0.000004  0.000000  0.000004 -0.000000 -0.000000  0.000004 -0.000000
    -0.000000  0.000004  0.000004  0.000000  0.000004 -0.000000 -0.000000  0.000004
    -0.000005 -0.000001  0.000004  0.000001  0.000000  0.000004 -0.000002 -0.000000
     0.000004 -0.000005 -0.000001  0.000004  0.000001 -0.000000  0.000004 -0.000002
    -0.000000  0.000004  0.000001 -0.000000  0.000004 -0.000002 -0.000000  0.000004
     0.000003  0.000000  0.000004 -0.000004 -0.000001  0.000004 -0.000001 -0.000000
     0.000004
     NEW TRUST RADIUS =  0.00039
*REMARK   3 HET = Not identified; C 21 H 16 N O 5    =    43 atoms res:    1
 PM7 CHARGE=+1 EF NOXYZ PRNT=2 PDBOUT COMPFG GRAPHF
 15-methoxy-24-methyl-5,7,18,20-tetraoxa-24-azoniahexacyclo[11.11.0.02,10.04,8.014,22.017,21]tetracosa-1(13),2,4(8),9,11,14,16,21,23-nonaene

  O(HETATM    1  O1  HET A   1)  -0.00004427 +1   -0.0005601 +1   -0.0000260 +1
  O(HETATM    2  O2  HET A   1)   2.22317271 +1   -0.0194587 +1    0.0053056 +1     1     0     0
  O(HETATM    3  O3  HET A   1)   4.81744919 +1   93.9979149 +1    0.0080374 +1     2     1     0
  O(HETATM    4  O4  HET A   1)   9.10012097 +1  103.9522647 +1    0.1862242 +1     3     2     1
  O(HETATM    5  O5  HET A   1)   2.22571843 +1   77.0099345 +1 -179.0340455 +1     4     3     2
  N(HETATM    6  N   HET A   1)   4.26767591 +1  125.4046252 +1   -0.0017480 +1     1     2     3
  C(HETATM    7  C1  HET A   1)   1.39955266 +1  121.6074721 +1    0.5995053 +1     6     1     2
  C(HETATM    8  C2  HET A   1)   1.46180182 +1  117.6774712 +1   -0.0333275 +1     7     6     1
  C(HETATM    9  C3  HET A   1)   1.44920834 +1  120.6428714 +1   -0.4128796 +1     8     7     6
  C(HETATM   10  C4  HET A   1)   1.41772277 +1  116.7964914 +1    0.6350140 +1     9     8     7
  C(HETATM   11  C5  HET A   1)   1.47302315 +1  124.1236980 +1  179.9555931 +1     7     6     1
  C(HETATM   12  C6  HET A   1)   1.44145395 +1  118.7231287 +1 -179.5578627 +1    11     7     6
  C(HETATM   13  C7  HET A   1)   4.56600628 +1   31.2590097 +1   -0.0206680 +1     2     1     3
  C(HETATM   14  C8  HET A   1)   1.33909154 +1   70.9202445 +1    0.1945795 +1     1     2     3
  C(HETATM   15  C9  HET A   1)   1.41262723 +1  118.4956118 +1  179.4819929 +1     8     7     6
  C(HETATM   16  C10 HET A   1)   1.35594805 +1   28.9010455 +1   -0.7799129 +1     3     2     1
  C(HETATM   17  C11 HET A   1)   1.36986234 +1  122.9600068 +1    0.2076196 +1    15     8     7
  C(HETATM   18  C12 HET A   1)   1.44049172 +1  126.5418122 +1    0.4944556 +1    11     7     6
  C(HETATM   19  C13 HET A   1)   1.33585295 +1   70.5356241 +1   -0.1784400 +1     2     1     3
  C(HETATM   20  C14 HET A   1)   1.41446361 +1  122.3740236 +1  179.9579583 +1    12    11     7
  C(HETATM   21  C15 HET A   1)   1.37597626 +1  128.2930135 +1  179.8202923 +1    19     2     1
  C(HETATM   22  C16 HET A   1)   1.33810008 +1    6.1975752 +1 -173.3446820 +1     4     3     2
  C(HETATM   23  C17 HET A   1)   1.47149227 +1  112.5407190 +1 -179.4302877 +1     6     1     2
  C(HETATM   24  C18 HET A   1)   1.33620955 +1  109.2218808 +1 -174.1151406 +1    22     4     3
  C(HETATM   25  C19 HET A   1)   1.38999460 +1   36.9858200 +1  179.8601586 +1     2     1     3
  C(HETATM   26  C20 HET A   1)   1.39117931 +1   36.9431614 +1 -179.2549927 +1     5     4     3
  C(HETATM   27  C21 HET A   1)   1.38081484 +1   98.6594733 +1  178.3319886 +1     3     2     1
  H(HETATM   28  H7  HET A   1)   1.08642622 +1  120.4322649 +1    8.4237537 +1    13     6     1
  H(HETATM   29  H9  HET A   1)   1.06300165 +1  125.5552334 +1 -179.5566073 +1    15     8     7
  H(HETATM   30  H11 HET A   1)   1.08593453 +1  118.3553350 +1 -179.9498161 +1    17    15     8
  H(HETATM   31  H12 HET A   1)   1.05862906 +1  128.2521495 +1    0.0860132 +1    18    11     7
  H(HETATM   32  H14 HET A   1)   1.08407773 +1  122.1244605 +1 -179.9694888 +1    20    12    11
  H(HETATM   33  H15 HET A   1)   1.08106013 +1  118.3738667 +1   -0.0783606 +1    21    19     2
  H(HETATM   34 1H17 HET A   1)   1.11005526 +1  109.7668871 +1  116.0802332 +1    23     6     1
  H(HETATM   35 2H17 HET A   1)   1.11000563 +1  109.8234209 +1 -116.6558275 +1    23     6     1
  H(HETATM   36 3H17 HET A   1)   1.11216535 +1  114.0695266 +1   -0.2057420 +1    23     6     1
  H(HETATM   37 1H19 HET A   1)   1.11061895 +1  110.1274860 +1  119.1682550 +1    25     2     1
  H(HETATM   38 2H19 HET A   1)   1.11050513 +1  110.1253327 +1 -119.1587875 +1    25     2     1
  H(HETATM   39 1H20 HET A   1)   1.11068179 +1  110.0995366 +1  119.1838807 +1    26     5     4
  H(HETATM   40 2H20 HET A   1)   1.11046709 +1  110.1248889 +1 -119.1978931 +1    26     5     4
  H(HETATM   41 1H21 HET A   1)   1.11046558 +1  110.3542806 +1   60.7574734 +1    27     3     2
  H(HETATM   42 2H21 HET A   1)   1.11077200 +1  110.1943038 +1  -61.3907954 +1    27     3     2
  H(HETATM   43 3H21 HET A   1)   1.10899263 +1  108.9424655 +1  179.7609155 +1    27     3     2

 XPARAM 
  1  1   -0.0000  1  2   -0.0006  1  3   -0.0000  2  1    2.2232  2  2   -0.0003
  2  3    0.0001  3  1    4.8174  3  2    1.6406  3  3    0.0001  4  1    9.1001
  4  2    1.8143  4  3    0.0033  5  1    2.2257  5  2    1.3441  5  3    3.1585
  6  1    4.2677  6  2    2.1887  6  3    6.2832  7  1    1.3996  7  2    2.1225
  7  3    0.0105  8  1    1.4618  8  2    2.0539  8  3    6.2826  9  1    1.4492
  9  2    2.1056  9  3    6.2760 10  1    1.4177 10  2    2.0385 10  3    0.0111
 11  1    1.4730 11  2    2.1664 11  3    3.1408 12  1    1.4415 12  2    2.0721
 12  3    3.1493 13  1    4.5660 13  2    0.5456 13  3    6.2828 14  1    1.3391
 14  2    1.2378 14  3    0.0034 15  1    1.4126 15  2    2.0681 15  3    3.1326
 16  1    1.3559 16  2    0.5044 16  3    6.2696 17  1    1.3699 17  2    2.1461
 17  3    0.0036 18  1    1.4405 18  2    2.2086 18  3    0.0086 19  1    1.3359
 19  2    1.2311 19  3    6.2801 20  1    1.4145 20  2    2.1358 20  3    3.1409
 21  1    1.3760 21  2    2.2391 21  3    3.1385 22  1    1.3381 22  2    0.1082
 22  3    3.2577 23  1    1.4715 23  2    1.9642 23  3    3.1515 24  1    1.3362
 24  2    1.9063 24  3    3.2443 25  1    1.3900 25  2    0.6455 25  3    3.1392
 26  1    1.3912 26  2    0.6448 26  3    3.1546 27  1    1.3808 27  2    1.7219
 27  3    3.1125 28  1    1.0864 28  2    2.1019 28  3    0.1470 29  1    1.0630
 29  2    2.1914 29  3    3.1493 30  1    1.0859 30  2    2.0657 30  3    3.1425
 31  1    1.0586 31  2    2.2384 31  3    0.0015 32  1    1.0841 32  2    2.1315
 32  3    3.1421 33  1    1.0811 33  2    2.0660 33  3    6.2818 34  1    1.1101
 34  2    1.9158 34  3    2.0260 35  1    1.1100 35  2    1.9168 35  3    4.2472
 36  1    1.1122 36  2    1.9909 36  3    6.2796 37  1    1.1106 37  2    1.9221
 37  3    2.0799 38  1    1.1105 38  2    1.9220 38  3    4.2035 39  1    1.1107
 39  2    1.9216 39  3    2.0802 40  1    1.1105 40  2    1.9220 40  3    4.2028
 41  1    1.1105 41  2    1.9260 41  3    1.0604 42  1    1.1108 42  2    1.9233
 42  3    5.2117 43  1    1.1090 43  2    1.9014 43  3    3.1374
 grad
       0.00001    0.00001   -0.00000 -453.21196    0.00000    0.00000   44.48715   82.36975
       0.00000   21.96430   44.11934    4.46662  -79.65981  -80.71233    0.88537   43.66635
   -1134.78156-3723.01052  -12.77394  -57.78183   -4.60414  -54.20779   20.60424   -6.26883
      -2.82249  -88.42674   -6.83928    7.95975  -20.75980   -3.69282   -4.10489  119.56149
      -2.15654   20.20135  -22.03106    0.09961  108.67809-1807.63129-3727.57492  -13.40913
    -100.38429    0.09203   -4.81064  -97.04040    0.34010   -8.47392   49.79074   -0.67209
      15.11380  -21.11828   -0.04578   10.71046   35.17797   -0.38928  -39.10995 -107.98279
       0.27542  -12.18345  -16.34839   -0.39066  -34.87275  -24.15699   -0.13397  -91.73443
      85.44291   -1.18929    3.17142  -18.68024   -0.01069 -112.20240  -48.47427    0.17817
     -30.61509  -53.65970   -0.05682  -28.26554  -54.42883    0.06477  -22.24502   26.33367
      -0.10401  -12.80851    6.47757   -5.64823  -23.41490   22.35995    0.15677   -8.38389
      -3.77270   -0.10520  -16.98135   16.99137    0.12432   -5.44935    4.32220   -0.11771
      -6.26643   -6.46464   -0.05053   -0.28770   -2.82668   -7.46309   -0.24293   -2.71605
       7.21765    1.07149    5.52311    0.29617    0.35215    3.30916    5.65731    0.30913
       3.30372   -5.60767    0.49877    3.15492    5.47144    0.42441    3.21427   -5.50220
       4.97886   -1.18727   -0.15384    5.03070   -1.36753    0.01687    7.25882   16.13230
       0.08031
 CYCLE:     4 TIME:   0.055 TIME LEFT:  2.00D  GRAD.:  5715.489 HEAT:  103.6542

          HESSIAN HAS  0 NEGATIVE EIGENVALUE(S)
  MIN SEARCH, CORRECT HESSIAN, TRYING PURE NR STEP
 LAMBDA THAT MINIMIZES ALONG ALL MODES =        0.000000000
 PURE NR-STEP HAS LENGTH  11.43110
 LAMBDA THAT MINIMIZES ALONG ALL MODES =     -501.019377790
 P-RFO-STEP   HAS LENGTH   0.90605
 NUMERICAL PROBLEMS IN BRACKETING LAMBDA   42.352966962038082       -1000000.0000000000        42.352966961995726        2.5441425069535619E-006   3.9423273649654005E+025
  GOING FOR FIXED LEVEL SHIFTED NR STEP...
 LAMBDA THAT MINIMIZES ALONG ALL MODES =       32.352966962
 P-RFO-STEP   HAS LENGTH   1.81211
     CALCULATED STEP SIZE TOO LARGE, SCALED WITH  0.00022

  HEAT OF FORMATION        103.56223831014358    
 PARAMETERS       -0.000  -0.001  -0.000   2.223  -0.000   0.000   4.817   1.641
   0.000   9.100   1.814   0.003   2.226   1.344   3.158   4.268   2.189   6.283

   1.400   2.122   0.010   1.462   2.054   6.283   1.449   2.106   6.276   1.418

   2.038   0.011   1.473   2.166   3.141   1.441   2.072   3.149   4.566   0.546

   6.283   1.339   1.238   0.003   1.413   2.068   3.133   1.356   0.504   6.270

   1.370   2.146   0.004   1.440   2.209   0.009   1.336   1.231   6.280   1.414

   2.136   3.141   1.376   2.239   3.138   1.338   0.108   3.258   1.471   1.964

   3.152   1.336   1.906   3.244   1.390   0.646   3.139   1.391   0.645   3.155

   1.381   1.722   3.112   1.086   2.102   0.147   1.063   2.191   3.149   1.086

   2.066   3.142   1.059   2.238   0.002   1.084   2.131   3.142   1.081   2.066

   6.282   1.110   1.916   2.026   1.110   1.917   4.247   1.112   1.991   6.280

   1.111   1.922   2.080   1.111   1.922   4.203   1.111   1.922   2.080   1.110

   1.922   4.203   1.110   1.926   1.060   1.111   1.923   5.212   1.109   1.901

   3.137
 GRADIENT          0.000   0.000  -0.000-446.028   0.000   0.000  44.329  84.777
   0.000  21.511  44.964   4.376 -79.541 -80.217   0.886  43.727****************

 -12.751 -55.453  -4.287 -53.030  19.625  -5.914  -2.616 -87.486  -6.504   7.829

[...]
     88         30  H    BOND            1.087405     -7.040226  KCAL/ANGSTROM
     89         30  H    ANGLE         118.627528     -3.398362  KCAL/RADIAN  
     90         30  H    DIHEDRAL      180.222423      0.063046  KCAL/RADIAN  
     91         31  H    BOND            1.061612    -14.293816  KCAL/ANGSTROM
     92         31  H    ANGLE         127.881966     14.066504  KCAL/RADIAN  
     93         31  H    DIHEDRAL        0.299915      0.447855  KCAL/RADIAN  
     94         32  H    BOND            1.084561     -5.041561  KCAL/ANGSTROM
     95         32  H    ANGLE         122.095683      4.256880  KCAL/RADIAN  
     96         32  H    DIHEDRAL      180.209402      0.213565  KCAL/RADIAN  
     97         33  H    BOND            1.082043     -5.404360  KCAL/ANGSTROM
     98         33  H    ANGLE         118.861077     -5.442265  KCAL/RADIAN  
     99         33  H    DIHEDRAL      360.040145      0.922627  KCAL/RADIAN  
    100         34  H    BOND            1.110824     -0.543795  KCAL/ANGSTROM
    101         34  H    ANGLE         109.873826     -2.265985  KCAL/RADIAN  
    102         34  H    DIHEDRAL      117.473725     -4.813681  KCAL/RADIAN  
    103         35  H    BOND            1.110346     -0.540112  KCAL/ANGSTROM
    104         35  H    ANGLE         109.999166     -2.095569  KCAL/RADIAN  
    105         35  H    DIHEDRAL      242.871547      5.142545  KCAL/RADIAN  
    106         36  H    BOND            1.110336      0.577641  KCAL/ANGSTROM
    107         36  H    ANGLE         114.197265      5.213740  KCAL/RADIAN  
    108         36  H    DIHEDRAL      360.503954      0.268760  KCAL/RADIAN  
    109         37  H    BOND            1.108637      0.170917  KCAL/ANGSTROM
    110         37  H    ANGLE         110.058763      3.194454  KCAL/RADIAN  
    111         37  H    DIHEDRAL      118.396227      3.959238  KCAL/RADIAN  
    112         38  H    BOND            1.109251      0.090589  KCAL/ANGSTROM
    113         38  H    ANGLE         110.122174      3.245315  KCAL/RADIAN  
    114         38  H    DIHEDRAL      241.976156     -3.347927  KCAL/RADIAN  
    115         39  H    BOND            1.108733      0.375369  KCAL/ANGSTROM
    116         39  H    ANGLE         110.082291      2.980800  KCAL/RADIAN  
    117         39  H    DIHEDRAL      118.513558      3.993394  KCAL/RADIAN  
    118         40  H    BOND            1.109070      0.312075  KCAL/ANGSTROM
    119         40  H    ANGLE         110.107613      3.206426  KCAL/RADIAN  
    120         40  H    DIHEDRAL      241.918613     -3.425738  KCAL/RADIAN  
    121         41  H    BOND            1.108431      4.141800  KCAL/ANGSTROM
    122         41  H    ANGLE         110.407208     -0.901312  KCAL/RADIAN  
    123         41  H    DIHEDRAL       61.591898     -0.177116  KCAL/RADIAN  
    124         42  H    BOND            1.108571      4.118164  KCAL/ANGSTROM
    125         42  H    ANGLE         110.445688     -0.902492  KCAL/RADIAN  
    126         42  H    DIHEDRAL      299.134261      0.114819  KCAL/RADIAN  
    127         43  H    BOND            1.107042      5.840207  KCAL/ANGSTROM
    128         43  H    ANGLE         108.225107     14.724103  KCAL/RADIAN  
    129         43  H    DIHEDRAL      180.402763      0.043997  KCAL/RADIAN  




  ATOM               CHEMICAL                 BOND LENGTH      BOND ANGLE     TWIST ANGLE 
 NUMBER               SYMBOL                  (ANGSTROMS)      (DEGREES)       (DEGREES) 
   (I)                                           NA:I           NB:NA:I       NC:NB:NA:I       NA    NB    NC 
     1       O(HETATM    1  O1  HET A   1)   -0.00599988  *    0.0007245  *   -0.0183621  *
     2       O(HETATM    2  O2  HET A   1)    2.23113293  *   -0.3864416  *   -2.1509007  *     1     0     0
     3       O(HETATM    3  O3  HET A   1)    4.81436251  *   93.8486448  *    0.1087841  *     2     1     0
     4       O(HETATM    4  O4  HET A   1)    9.08601384  *  103.8358785  *    0.2106720  *     3     2     1
     5       O(HETATM    5  O5  HET A   1)    2.23950384  *   77.2675965  * -179.8253624  *     4     3     2
     6       N(HETATM    6  N   HET A   1)    4.25746566  *  125.3930782  *    0.8442657  *     1     2     3
     7       C(HETATM    7  C1  HET A   1)    1.39968851  *  121.6245827  *   -2.0008895  *     6     1     2
     8       C(HETATM    8  C2  HET A   1)    1.45532360  *  117.6926129  *    1.3307136  *     7     6     1
     9       C(HETATM    9  C3  HET A   1)    1.44863715  *  121.0064180  *   -1.1283751  *     8     7     6
    10       C(HETATM   10  C4  HET A   1)    1.41880234  *  116.4089336  *   -0.2759452  *     9     8     7
    11       C(HETATM   11  C5  HET A   1)    1.46984279  *  123.9103890  * -178.8754782  *     7     6     1
    12       C(HETATM   12  C6  HET A   1)    1.43662490  *  118.7606930  * -178.8136190  *    11     7     6
    13       C(HETATM   13  C7  HET A   1)    4.57039850  *   31.2028544  *   -0.8359364  *     2     1     3
    14       C(HETATM   14  C8  HET A   1)    1.34215743  *   70.7088997  *   -0.6307596  *     1     2     3
    15       C(HETATM   15  C9  HET A   1)    1.41301540  *  118.7049565  *  178.3920993  *     8     7     6
    16       C(HETATM   16  C10 HET A   1)    1.35131932  *   28.6711232  *    0.1702479  *     3     2     1
    17       C(HETATM   17  C11 HET A   1)    1.36883150  *  122.6358731  *    0.7686675  *    15     8     7
    18       C(HETATM   18  C12 HET A   1)    1.43820659  *  126.2360688  *    1.6201793  *    11     7     6
    19       C(HETATM   19  C13 HET A   1)    1.33642971  *   70.9039676  *    0.7067717  *     2     1     3
    20       C(HETATM   20  C14 HET A   1)    1.41639045  *  122.7279615  * -179.6505034  *    12    11     7
    21       C(HETATM   21  C15 HET A   1)    1.37412804  *  128.6892829  * -178.5899739  *    19     2     1
    22       C(HETATM   22  C16 HET A   1)    1.34099238  *    6.5388683  * -173.4929494  *     4     3     2
    23       C(HETATM   23  C17 HET A   1)    1.46948788  *  112.8574162  * -179.9342454  *     6     1     2
    24       C(HETATM   24  C18 HET A   1)    1.34833783  *  109.4132127  * -173.2719794  *    22     4     3
    25       C(HETATM   25  C19 HET A   1)    1.39412551  *   37.1243733  *  179.6872215  *     2     1     3
    26       C(HETATM   26  C20 HET A   1)    1.39536789  *   37.0130933  * -179.4782269  *     5     4     3
    27       C(HETATM   27  C21 HET A   1)    1.38549742  *   98.0469490  * -179.7074615  *     3     2     1
    28       H(HETATM   28  H7  HET A   1)    1.08926678  *  120.3810929  *    2.7166945  *    13     6     1
    29       H(HETATM   29  H9  HET A   1)    1.06743349  *  124.9473909  * -179.0509524  *    15     8     7
    30       H(HETATM   30  H11 HET A   1)    1.08740467  *  118.6275276  * -179.7775765  *    17    15     8
    31       H(HETATM   31  H12 HET A   1)    1.06161198  *  127.8819657  *    0.2999152  *    18    11     7
    32       H(HETATM   32  H14 HET A   1)    1.08456122  *  122.0956832  * -179.7905978  *    20    12    11
    33       H(HETATM   33  H15 HET A   1)    1.08204263  *  118.8610775  *    0.0401452  *    21    19     2
    34       H(HETATM   34 1H17 HET A   1)    1.11082376  *  109.8738261  *  117.4737249  *    23     6     1
    35       H(HETATM   35 2H17 HET A   1)    1.11034595  *  109.9991663  * -117.1284529  *    23     6     1
    36       H(HETATM   36 3H17 HET A   1)    1.11033614  *  114.1972655  *    0.5039538  *    23     6     1
    37       H(HETATM   37 1H19 HET A   1)    1.10863708  *  110.0587625  *  118.3962274  *    25     2     1
    38       H(HETATM   38 2H19 HET A   1)    1.10925091  *  110.1221744  * -118.0238435  *    25     2     1
    39       H(HETATM   39 1H20 HET A   1)    1.10873336  *  110.0822908  *  118.5135577  *    26     5     4
    40       H(HETATM   40 2H20 HET A   1)    1.10907003  *  110.1076134  * -118.0813872  *    26     5     4
    41       H(HETATM   41 1H21 HET A   1)    1.10843137  *  110.4072080  *   61.5918976  *    27     3     2
    42       H(HETATM   42 2H21 HET A   1)    1.10857092  *  110.4456884  *  -60.8657388  *    27     3     2
    43       H(HETATM   43 3H21 HET A   1)    1.10704246  *  108.2251066  * -179.5972373  *    27     3     2

                             CARTESIAN COORDINATES

   1    O       -0.005999881     0.000724479    -0.018362120
   2    O        2.225133053     0.000724479    -0.018362120
   3    O        2.548277982     4.804229841    -0.018362120
   4    O       -6.108303797     7.564336209     0.014076988
   5    O       -4.974502905     9.495596428     0.003735918
   6    N       -2.471850312     3.471024214    -0.069501440
   7    C       -1.925938000     4.759665225    -0.046873677
   8    C       -0.475619666     4.879661406    -0.034855419
   9    C        0.370376338     3.703794591    -0.021529407
  10    C       -0.292609990     2.449440487    -0.014822441
  11    C       -2.729272602     5.990530725    -0.039032928
  12    C       -2.052441767     7.257726647    -0.041405461
  13    C       -1.684104521     2.368257099    -0.052906500
  14    C        0.437405702     1.267446064    -0.004416431
  15    C        0.098678080     6.170650403    -0.046772863
  16    C        1.821824329     3.664789070    -0.016435661
  17    C       -0.654494938     7.313621055    -0.053712291
  18    C       -4.165244502     6.068413359    -0.020133685
  19    C        1.787916783     1.263516478    -0.002784167
  20    C       -2.742575945     8.494525449    -0.027071666
  21    C        2.520148106     2.426237396    -0.014835613
  22    C       -4.792975250     7.304184851    -0.008118566
  23    C       -3.906306490     3.152133968    -0.063248008
  24    C       -4.106571914     8.464728094    -0.010298444
  25    C        1.113558786    -0.840683560    -0.013768815
  26    C       -6.262916618     8.960043545     0.018728362
  27    C        3.930039784     4.905661479    -0.025366454
  28    H       -2.120140617     1.377845484    -0.177242615
  29    H        1.146603448     6.373658704    -0.054142871
  30    H       -0.144184349     8.273760630    -0.066519138
  31    H       -4.861386912     5.267060677    -0.004654212
  32    H       -2.221133434     9.445494745    -0.032376984
  33    H        3.600035978     2.363152256    -0.040887652
  34    H       -4.378667242     3.554864509     0.857953844
  35    H       -4.381132924     3.519802877    -0.997179245
  36    H       -4.130739608     2.065024363    -0.037386283
  37    H        1.109285873    -1.470046454    -0.926435382
  38    H        1.104642866    -1.456151862     0.909029567
  39    H       -6.793813789     9.271159548     0.941032373
  40    H       -6.814545409     9.268199011    -0.892744193
  41    H        4.347023279     4.441358152    -0.941427200
  42    H        4.357884909     4.429341402     0.879618200
  43    H        4.198397056     5.979666371    -0.018973829


           Empirical Formula: C21 H16 N O5  =    43 atoms



      MOLECULAR POINT GROUP   :   C1  


                  EIGENVALUES  
 -41.62761 -36.65839 -36.32018 -34.61058 -34.34330 -33.80084 -33.07924 -32.82579
 -32.73243 -31.29430 -30.58069 -29.75667 -29.36781 -28.53433 -27.94295 -27.82908
 -27.31584 -26.86980 -26.39133 -25.75731 -25.12584 -24.78337 -24.18048 -22.79096
 -22.12414 -21.74195 -21.41490 -21.04514 -20.69229 -20.50627 -20.30924 -20.16958
 -20.13520 -19.93826 -19.80158 -19.05979 -18.93583 -18.69434 -18.53596 -18.24155
 -18.17090 -17.97399 -17.85742 -17.78883 -17.37999 -17.24450 -17.11966 -16.97418
 -16.56647 -16.53794 -16.31729 -16.30973 -16.17146 -16.07884 -15.94777 -15.81579
 -15.63571 -15.33097 -15.10735 -14.92155 -14.56845 -13.98657 -13.69598 -13.01293
 -12.27414 -11.78845 -11.29530  -5.14139  -4.48388  -3.50346  -3.11431  -2.90278
  -2.71328  -2.47219  -2.08721  -1.86143  -1.73508  -1.57731  -1.15082  -1.04989
  -0.85872  -0.69649  -0.55556  -0.37798   0.04288   0.14726   0.25175   0.32089
   0.53835   0.59525   0.70247   0.91164   0.94523   1.00202   1.13888   1.15600
   1.18793   1.25389   1.27769   1.34077   1.34906   1.43235   1.46469   1.58694
   1.64885   1.67080   1.77916   1.93945   2.02294   2.02623   2.15967   2.19072
   2.21025   2.39198   2.43707   2.46146   2.49511   2.52061   2.82343   2.88305
   2.98228   3.13213   3.16816   3.35319


              NET ATOMIC CHARGES AND DIPOLE CONTRIBUTIONS

  ATOM NO.                 TYPE                        CHARGE      No. of ELECS.   s-Pop       p-Pop       
    1          O(HETATM    1  O1  HET A   1)          -0.345061        6.3451     1.85265     4.49241
    2          O(HETATM    2  O2  HET A   1)          -0.310397        6.3104     1.85099     4.45941
    3          O(HETATM    3  O3  HET A   1)          -0.342557        6.3426     1.82971     4.51285
    4          O(HETATM    4  O4  HET A   1)          -0.328252        6.3283     1.85568     4.47257
    5          O(HETATM    5  O5  HET A   1)          -0.315933        6.3159     1.85583     4.46010
    6          N(HETATM    6  N   HET A   1)          -0.032877        5.0329     1.50153     3.53135
    7          C(HETATM    7  C1  HET A   1)           0.029282        3.9707     1.06541     2.90531
    8          C(HETATM    8  C2  HET A   1)           0.086743        3.9133     1.07389     2.83937
    9          C(HETATM    9  C3  HET A   1)          -0.091367        4.0914     1.06023     3.03113
   10          C(HETATM   10  C4  HET A   1)          -0.066764        4.0668     1.03954     3.02722
   11          C(HETATM   11  C5  HET A   1)           0.023744        3.9763     1.06414     2.91212
   12          C(HETATM   12  C6  HET A   1)          -0.020777        4.0208     1.05645     2.96433
   13          C(HETATM   13  C7  HET A   1)           0.043810        3.9562     1.10019     2.85600
   14          C(HETATM   14  C8  HET A   1)           0.061953        3.9380     1.05062     2.88742
   15          C(HETATM   15  C9  HET A   1)          -0.187790        4.1878     1.07666     3.11113
   16          C(HETATM   16  C10 HET A   1)           0.318150        3.6819     1.09296     2.58889
   17          C(HETATM   17  C11 HET A   1)          -0.064734        4.0647     1.09184     2.97289
   18          C(HETATM   18  C12 HET A   1)          -0.259137        4.2591     1.06769     3.19144
   19          C(HETATM   19  C13 HET A   1)           0.223580        3.7764     1.06221     2.71421
   20          C(HETATM   20  C14 HET A   1)          -0.167053        4.1671     1.07624     3.09082
   21          C(HETATM   21  C15 HET A   1)          -0.300402        4.3004     1.07451     3.22589
   22          C(HETATM   22  C16 HET A   1)           0.186343        3.8137     1.06799     2.74566
   23          C(HETATM   23  C17 HET A   1)          -0.300671        4.3007     1.07378     3.22689
   24          C(HETATM   24  C18 HET A   1)           0.144485        3.8555     1.06381     2.79170
   25          C(HETATM   25  C19 HET A   1)           0.181299        3.8187     1.12760     2.69110
   26          C(HETATM   26  C20 HET A   1)           0.164387        3.8356     1.12826     2.70735
   27          C(HETATM   27  C21 HET A   1)          -0.168109        4.1681     1.08762     3.08049
   28          H(HETATM   28  H7  HET A   1)           0.212870        0.7871     0.78713
   29          H(HETATM   29  H9  HET A   1)           0.192419        0.8076     0.80758
   30          H(HETATM   30  H11 HET A   1)           0.180044        0.8200     0.81996
   31          H(HETATM   31  H12 HET A   1)           0.175755        0.8242     0.82425
   32          H(HETATM   32  H14 HET A   1)           0.195833        0.8042     0.80417
   33          H(HETATM   33  H15 HET A   1)           0.207075        0.7929     0.79293
   34          H(HETATM   34 1H17 HET A   1)           0.197692        0.8023     0.80231
   35          H(HETATM   35 2H17 HET A   1)           0.197294        0.8027     0.80271
   36          H(HETATM   36 3H17 HET A   1)           0.186358        0.8136     0.81364
   37          H(HETATM   37 1H19 HET A   1)           0.157742        0.8423     0.84226
   38          H(HETATM   38 2H19 HET A   1)           0.156956        0.8430     0.84304
   39          H(HETATM   39 1H20 HET A   1)           0.158716        0.8413     0.84128
   40          H(HETATM   40 2H20 HET A   1)           0.158148        0.8419     0.84185
   41          H(HETATM   41 1H21 HET A   1)           0.144917        0.8551     0.85508
   42          H(HETATM   42 2H21 HET A   1)           0.145460        0.8545     0.85454
   43          H(HETATM   43 3H21 HET A   1)           0.170828        0.8292     0.82917
 DIPOLE           X         Y         Z       TOTAL
 POINT-CHG.    -0.111    -2.670    -0.196     2.679
 HYBRID        -0.773    -0.477     0.009     0.909
 SUM           -0.885    -3.147    -0.187     3.274


          ATOMIC ORBITAL ELECTRON POPULATIONS

                   Atom                  s        px        py        pz   
   O(HETATM    1  O1  HET A   1)   1.85265   1.38760   1.20820   1.89662
   O(HETATM    2  O2  HET A   1)   1.85099   1.37618   1.21122   1.87200
   O(HETATM    3  O3  HET A   1)   1.82971   1.29635   1.36900   1.84749
   O(HETATM    4  O4  HET A   1)   1.85568   1.27630   1.32116   1.87511
   O(HETATM    5  O5  HET A   1)   1.85583   1.22897   1.34416   1.88697
   N(HETATM    6  N   HET A   1)   1.50153   1.11679   1.09820   1.31636
   C(HETATM    7  C1  HET A   1)   1.06541   0.95623   0.82505   1.12402
   C(HETATM    8  C2  HET A   1)   1.07389   0.92924   0.98153   0.92860
   C(HETATM    9  C3  HET A   1)   1.06023   0.96409   0.96754   1.09950
   C(HETATM   10  C4  HET A   1)   1.03954   0.97120   0.97812   1.07790
   C(HETATM   11  C5  HET A   1)   1.06414   0.95608   0.94185   1.01419
   C(HETATM   12  C6  HET A   1)   1.05645   0.98770   0.95886   1.01776
   C(HETATM   13  C7  HET A   1)   1.10019   0.96977   0.95948   0.92675
   C(HETATM   14  C8  HET A   1)   1.05062   0.96395   0.84038   1.08309
   C(HETATM   15  C9  HET A   1)   1.07666   1.11615   0.96012   1.03487
   C(HETATM   16  C10 HET A   1)   1.09296   0.88470   0.83401   0.87019
   C(HETATM   17  C11 HET A   1)   1.09184   0.99039   1.07347   0.90903
   C(HETATM   18  C12 HET A   1)   1.06769   0.99344   1.06461   1.13340
   C(HETATM   19  C13 HET A   1)   1.06221   0.94044   0.84298   0.93079
   C(HETATM   20  C14 HET A   1)   1.07624   0.98855   1.06233   1.03993
   C(HETATM   21  C15 HET A   1)   1.07451   1.12172   0.95881   1.14536
   C(HETATM   22  C16 HET A   1)   1.06799   0.81152   0.98767   0.94647
   C(HETATM   23  C17 HET A   1)   1.07378   0.82408   1.20381   1.19900
   C(HETATM   24  C18 HET A   1)   1.06381   0.94138   0.86279   0.98753
   C(HETATM   25  C19 HET A   1)   1.12760   0.67088   0.87782   1.14240
   C(HETATM   26  C20 HET A   1)   1.12826   0.83808   0.72495   1.14432
   C(HETATM   27  C21 HET A   1)   1.08762   0.75933   1.16599   1.15517
   H(HETATM   28  H7  HET A   1)   0.78713
   H(HETATM   29  H9  HET A   1)   0.80758
   H(HETATM   30  H11 HET A   1)   0.81996
   H(HETATM   31  H12 HET A   1)   0.82425
   H(HETATM   32  H14 HET A   1)   0.80417
   H(HETATM   33  H15 HET A   1)   0.79293
   H(HETATM   34 1H17 HET A   1)   0.80231
   H(HETATM   35 2H17 HET A   1)   0.80271
   H(HETATM   36 3H17 HET A   1)   0.81364
   H(HETATM   37 1H19 HET A   1)   0.84226
   H(HETATM   38 2H19 HET A   1)   0.84304
   H(HETATM   39 1H20 HET A   1)   0.84128
   H(HETATM   40 2H20 HET A   1)   0.84185
   H(HETATM   41 1H21 HET A   1)   0.85508
   H(HETATM   42 2H21 HET A   1)   0.85454
   H(HETATM   43 3H21 HET A   1)   0.82917

           DATA FOR GRAPH WRITTEN TO DISK

 **********************
 *                    *
 * JOB ENDED NORMALLY *
 *                    *
 **********************



 TOTAL JOB TIME:             1.46 SECONDS

 == MOPAC DONE ==
