 *******************************************************************************
 **                                                                           **
 **                              MOPAC v22.0.6                                **
 **                                                                           **
 *******************************************************************************
 **          Digital Object Identifier (DOI): 10.5281/zenodo.6511958          **
 **    Visit the DOI location for information on how to cite this program.    **
 *******************************************************************************

                              PM7 CALCULATION RESULTS

 *******************************************************************************
 *  CALCULATION DONE:                                Sun Oct 12 20:17:37 2025  *
 *  PM7        - The PM7 Hamiltonian to be used
 *  PDBOUT     - PRINT GEOMETRY IN PDB FORMAT
 *  RESIDUES   - DETERMINE THE SEQUENCE OF RESIDUES
 *
 *
 *
 *                 CHARGE ON SYSTEM = +1
 *
 *
 *
 *  EF         - USE EF ROUTINE FOR MINIMUM SEARCH
 *  T=         - A TIME OF 172800.0 SECONDS REQUESTED
 *  DUMP=N     - RESTART FILE WRITTEN EVERY 7200.0 SECONDS REQUESTED
 *  NOXYZ      - CARTESIAN COORDINATES NOT TO BE PRINTED
 *  PRNT       - EXTRA PRINTING IN EF ROUTINE
 *  GRAPH      - GENERATE FILE FOR GRAPHICS
 *  COMPFG     - PRINT HEAT OF FORMATION CALC'D IN COMPFG
 *******************************************************************************
PM7 CHARGE=+1 EF NOXYZ PRNT=2 PDBOUT COMPFG GRAPHF
 2,3,7,8,10-pentamethoxy-5-methylbenzo[c]phenanthridin-5-ium

  ATOM    CHEMICAL      BOND LENGTH      BOND ANGLE     TWIST ANGLE 
 NUMBER    SYMBOL       (ANGSTROMS)      (DEGREES)       (DEGREES) 
   (I)                     NA:I           NB:NA:I       NC:NB:NA:I       NA    NB    NC 
     1       O          0.00000000  *    0.0000000  *    0.0000000  *     0     0     0
     2       O          5.54241100  *    0.0000000  *    0.0000000  *     1     0     0
     3       O          2.80833400  *   59.3592550  *    0.0000000  *     2     1     0
     4       O          9.11032400  *   76.0188380  * -174.3077030  *     1     2     3
     5       O          2.84317300  *   73.6170510  * -179.9697170  *     4     1     2
     6       N          4.07620200  *   63.1018640  *  175.3911590  *     2     1     3
     7       C          1.39795600  *  124.4382050  *    0.8778090  *     6     2     1
     8       C          1.45872300  *  117.4510680  *    0.1887700  *     7     6     2
     9       C          1.45361500  *  120.6625130  *   -1.7549530  *     8     7     6
    10       C          1.47610500  *  124.4935440  * -179.3448870  *     7     6     2
    11       C          1.41536200  *  117.5791940  *    1.7485280  *     9     8     7
    12       C          1.42435800  *  118.8451890  * -179.5079920  *    10     7     6
    13       C          2.71709600  *   61.4051490  *  175.3168670  *     2     1     3
    14       C          1.41368100  *  118.0044460  *  178.6022100  *     8     7     6
    15       C          3.69393600  *   11.3262990  *   -1.6565150  *     3     1     2
    16       C          1.36969900  *  122.9157640  *    1.1536270  *    14     8     7
    17       C          2.39089900  *   61.1469300  *   -0.7608530  *     3     1     2
    18       C          1.43120500  *  126.9956350  *    1.0278180  *    10     7     6
    19       C          1.47423700  *  109.2916950  * -179.2850190  *     6     2     1
    20       C          1.40262300  *  122.2405160  * -178.7774940  *    12    10     7
    21       C          1.35951000  *   59.6289530  *   -0.4100210  *     3     2     1
    22       C          1.39275600  *  121.2263360  *  179.9346340  *    21     3     2
    23       C          1.36269000  *   14.2950400  * -172.9105380  *     4     1     2
    24       C          1.36252600  *   56.7994470  *    2.8655030  *     5     4     1
    25       C          1.38131200  *  126.4180100  *    3.9356780  *     1     2     3
    26       C          1.38047700  *  128.1890130  *  -38.0621230  *     2     1     3
    27       C          1.38066800  *  171.2400010  *  138.8341050  *     3     2     1
    28       C          1.38146400  *  113.2597060  *   -0.4229670  *     4     1     2
    29       C          1.37907100  *   71.7568700  * -170.1322320  *     5     4     1
    30       H          1.08338200  *  118.9461430  *   -2.9453180  *    13     6     2
    31       H          1.06162000  *  126.1643310  * -178.9497680  *    14     8     7
    32       H          1.08562900  *  118.1638910  *  179.5284090  *    16    14     8
    33       H          1.04610900  *  124.0938810  *   -0.8555520  *    18    10     7
    34       H          1.11049500  *  109.8999980  * -117.0229010  *    19     6     2
    35       H          1.11222700  *  114.4552860  *   -0.6223380  *    19     6     2
    36       H          1.11003300  *  109.7891540  *  115.2655260  *    19     6     2
    37       H          1.08547200  *  120.2099310  *  179.4123420  *    20    12    10
    38       H          1.07826400  *  118.2829840  *    1.9226570  *    22    21     3
    39       H          1.10909800  *  108.9271880  *  178.2865270  *    25     1     2
    40       H          1.11101300  *  110.2903340  *   59.4881610  *    25     1     2
    41       H          1.11073000  *  110.3064950  *  -62.8334290  *    25     1     2
    42       H          1.10428000  *  113.0250960  *   66.3783580  *    26     2     1
    43       H          1.11152700  *  109.2762540  *  -57.4659840  *    26     2     1
    44       H          1.10904000  *  108.5275250  * -175.0439810  *    26     2     1
    45       H          1.11217900  *  110.0162780  *  -76.0920090  *    27     3     2
    46       H          1.10959300  *  110.5994790  *  161.8629090  *    27     3     2
    47       H          1.10916000  *  109.0209090  *   42.4327760  *    27     3     2
    48       H          1.11039400  *  110.3796220  *   58.7762290  *    28     4     1
    49       H          1.11164400  *  110.1762780  *  -63.3307110  *    28     4     1
    50       H          1.10871700  *  108.9658110  *  177.8170520  *    28     4     1
    51       H          1.11190000  *  109.9106190  *   66.9062510  *    29     5     4
    52       H          1.10942900  *  110.8760790  *  -56.1055430  *    29     5     4
    53       H          1.10901900  *  108.8189240  * -174.8287430  *    29     5     4


 General Reference for PM7:
 "Optimization of Parameters for Semiempirical Methods VI: More Modifications to the 
 NDDO Approximations and Re-optimization of Parameters", J. J. P. Stewart, J. Mol. Mod., 1:32, 19 (2013)
 https://link.springer.com/article/10.1007/s00894-012-1667-x

           Empirical Formula: C23 H24 N O5  =    53 atoms



      MOLECULAR POINT GROUP   :   C1  


      RHF CALCULATION, NO. OF DOUBLY OCCUPIED LEVELS = 75


          Geometry optimization using EF

  HEAT OF FORMATION        69.155197060259525    
 PARAMETERS        0.000   0.000   0.000   5.542   0.000   0.000   2.808   1.036
   0.000   9.110   1.327   3.241   2.843   1.285   3.142   4.076   1.101   3.061

   1.398   2.172   0.015   1.459   2.050   0.003   1.454   2.106   6.253   1.476

   2.173   3.153   1.415   2.052   0.031   1.424   2.074   3.150   2.717   1.072

   3.060   1.414   2.060   3.117   3.694   0.198   6.254   1.370   2.145   0.020

   2.391   1.067   6.270   1.431   2.216   0.018   1.474   1.907   3.154   1.403

   2.133   3.163   1.360   1.041   6.276   1.393   2.116   3.140   1.363   0.249

   3.265   1.363   0.991   0.050   1.381   2.206   0.069   1.380   2.237   5.619

   1.381   2.989   2.423   1.381   1.977   6.276   1.379   1.252   3.314   1.083

   2.076   6.232   1.062   2.202   3.160   1.086   2.062   3.133   1.046   2.166

   6.268   1.110   1.918   4.241   1.112   1.998   6.272   1.110   1.916   2.012

   1.085   2.098   3.131   1.078   2.064   0.034   1.109   1.901   3.112   1.111

   1.925   1.038   1.111   1.925   5.187   1.104   1.973   1.159   1.112   1.907

   5.280   1.109   1.894   3.228   1.112   1.920   4.955   1.110   1.930   2.825

   1.109   1.903   0.741   1.110   1.926   1.026   1.112   1.923   5.178   1.109

   1.902   3.103   1.112   1.918   1.168   1.109   1.935   5.304   1.109   1.899

   3.232
 GRADIENT          0.000   0.000  -0.000  36.813   0.000   0.000 -19.665 -69.849
   0.000  42.425 124.076  18.179 -12.540  -1.906  -0.688  34.284 123.282   5.481

 -22.322 -99.720   5.836 -99.268  68.662   2.054 -20.292-133.727  -1.647 -43.030

 204.482  -7.459   3.306 -54.573  -3.418  28.663-102.854   0.767 -46.295 -97.942

  13.003 -12.301-166.544   3.729  25.442  59.609  -0.373  26.451 -51.133   0.026

  31.506 -45.524 -39.965   2.296   0.995  -1.232   7.184 -19.463   0.525 -31.618

  11.385  -1.421  -8.239 -27.374 -10.846 -18.524 -20.073   0.914   1.107  98.238

  -3.663  35.036  20.527   5.532 -19.324  27.167   0.394 -17.781  31.356  -3.342

 -21.654 -19.818   2.777 -19.029  25.177   0.734 -21.061  30.549  -1.958 -16.201

   3.835  -0.451 -23.926  24.325  -0.028  -9.560  -2.820  -0.603 -22.416  11.760

   0.562   0.924  -1.868   7.781   1.363   7.164   0.354   0.411  -1.883  -8.006

  -6.914   0.653  -0.372  -7.827  -1.886  -0.182   7.400  16.326  -0.062   5.587

  -1.229  -0.001   5.505  -1.055   0.061   2.633   4.234   2.620   5.811  -2.261

  -2.555   6.742  16.857   0.420   5.946  -1.746  -0.044   5.284  -1.309   0.606

   7.294  15.986  -0.389   5.917  -1.452  -0.587   6.361  -1.541   0.490   6.968

  15.714   0.034   6.451  -2.102   2.219   5.358  -0.244  -2.114   6.846  16.393

  -0.147

          DIAGONAL MATRIX USED AS START HESSIAN

*REMARK   3 HET = Not identified; C 23 H 24 N O 5    =    53 atoms res:    1
 PM7 CHARGE=+1 EF NOXYZ PRNT=2 PDBOUT COMPFG GRAPHF
 2,3,7,8,10-pentamethoxy-5-methylbenzo[c]phenanthridin-5-ium

  O(HETATM    1  O1  HET A   1)   0.00000000 +1    0.0000000 +1    0.0000000 +1
  O(HETATM    2  O2  HET A   1)   5.54241100 +1    0.0000000 +1    0.0000000 +1     1     0     0
  O(HETATM    3  O3  HET A   1)   2.80833400 +1   59.3592550 +1    0.0000000 +1     2     1     0
  O(HETATM    4  O4  HET A   1)   9.11032400 +1   76.0188380 +1 -174.3077030 +1     1     2     3
  O(HETATM    5  O5  HET A   1)   2.84317300 +1   73.6170510 +1 -179.9697170 +1     4     1     2
  N(HETATM    6  N   HET A   1)   4.07620200 +1   63.1018640 +1  175.3911590 +1     2     1     3
  C(HETATM    7  C1  HET A   1)   1.39795600 +1  124.4382050 +1    0.8778090 +1     6     2     1
  C(HETATM    8  C2  HET A   1)   1.45872300 +1  117.4510680 +1    0.1887700 +1     7     6     2
  C(HETATM    9  C3  HET A   1)   1.45361500 +1  120.6625130 +1   -1.7549530 +1     8     7     6
  C(HETATM   10  C4  HET A   1)   1.47610500 +1  124.4935440 +1 -179.3448870 +1     7     6     2
  C(HETATM   11  C5  HET A   1)   1.41536200 +1  117.5791940 +1    1.7485280 +1     9     8     7
  C(HETATM   12  C6  HET A   1)   1.42435800 +1  118.8451890 +1 -179.5079920 +1    10     7     6
  C(HETATM   13  C7  HET A   1)   2.71709600 +1   61.4051490 +1  175.3168670 +1     2     1     3
  C(HETATM   14  C8  HET A   1)   1.41368100 +1  118.0044460 +1  178.6022100 +1     8     7     6
  C(HETATM   15  C9  HET A   1)   3.69393600 +1   11.3262990 +1   -1.6565150 +1     3     1     2
  C(HETATM   16  C10 HET A   1)   1.36969900 +1  122.9157640 +1    1.1536270 +1    14     8     7
  C(HETATM   17  C11 HET A   1)   2.39089900 +1   61.1469300 +1   -0.7608530 +1     3     1     2
  C(HETATM   18  C12 HET A   1)   1.43120500 +1  126.9956350 +1    1.0278180 +1    10     7     6
  C(HETATM   19  C13 HET A   1)   1.47423700 +1  109.2916950 +1 -179.2850190 +1     6     2     1
  C(HETATM   20  C14 HET A   1)   1.40262300 +1  122.2405160 +1 -178.7774940 +1    12    10     7
  C(HETATM   21  C15 HET A   1)   1.35951000 +1   59.6289530 +1   -0.4100210 +1     3     2     1
  C(HETATM   22  C16 HET A   1)   1.39275600 +1  121.2263360 +1  179.9346340 +1    21     3     2
  C(HETATM   23  C17 HET A   1)   1.36269000 +1   14.2950400 +1 -172.9105380 +1     4     1     2
  C(HETATM   24  C18 HET A   1)   1.36252600 +1   56.7994470 +1    2.8655030 +1     5     4     1
  C(HETATM   25  C19 HET A   1)   1.38131200 +1  126.4180100 +1    3.9356780 +1     1     2     3
  C(HETATM   26  C20 HET A   1)   1.38047700 +1  128.1890130 +1  -38.0621230 +1     2     1     3
  C(HETATM   27  C21 HET A   1)   1.38066800 +1  171.2400010 +1  138.8341050 +1     3     2     1
  C(HETATM   28  C22 HET A   1)   1.38146400 +1  113.2597060 +1   -0.4229670 +1     4     1     2
  C(HETATM   29  C23 HET A   1)   1.37907100 +1   71.7568700 +1 -170.1322320 +1     5     4     1
  H(HETATM   30  H7  HET A   1)   1.08338200 +1  118.9461430 +1   -2.9453180 +1    13     6     2
  H(HETATM   31  H8  HET A   1)   1.06162000 +1  126.1643310 +1 -178.9497680 +1    14     8     7
  H(HETATM   32  H10 HET A   1)   1.08562900 +1  118.1638910 +1  179.5284090 +1    16    14     8
  H(HETATM   33  H12 HET A   1)   1.04610900 +1  124.0938810 +1   -0.8555520 +1    18    10     7
  H(HETATM   34 1H13 HET A   1)   1.11049500 +1  109.8999980 +1 -117.0229010 +1    19     6     2
  H(HETATM   35 2H13 HET A   1)   1.11222700 +1  114.4552860 +1   -0.6223380 +1    19     6     2
  H(HETATM   36 3H13 HET A   1)   1.11003300 +1  109.7891540 +1  115.2655260 +1    19     6     2
  H(HETATM   37  H14 HET A   1)   1.08547200 +1  120.2099310 +1  179.4123420 +1    20    12    10
  H(HETATM   38  H16 HET A   1)   1.07826400 +1  118.2829840 +1    1.9226570 +1    22    21     3
  H(HETATM   39 1H19 HET A   1)   1.10909800 +1  108.9271880 +1  178.2865270 +1    25     1     2
  H(HETATM   40 2H19 HET A   1)   1.11101300 +1  110.2903340 +1   59.4881610 +1    25     1     2
  H(HETATM   41 3H19 HET A   1)   1.11073000 +1  110.3064950 +1  -62.8334290 +1    25     1     2
  H(HETATM   42 1H20 HET A   1)   1.10428000 +1  113.0250960 +1   66.3783580 +1    26     2     1
  H(HETATM   43 2H20 HET A   1)   1.11152700 +1  109.2762540 +1  -57.4659840 +1    26     2     1
  H(HETATM   44 3H20 HET A   1)   1.10904000 +1  108.5275250 +1 -175.0439810 +1    26     2     1
  H(HETATM   45 1H21 HET A   1)   1.11217900 +1  110.0162780 +1  -76.0920090 +1    27     3     2
  H(HETATM   46 2H21 HET A   1)   1.10959300 +1  110.5994790 +1  161.8629090 +1    27     3     2
  H(HETATM   47 3H21 HET A   1)   1.10916000 +1  109.0209090 +1   42.4327760 +1    27     3     2
  H(HETATM   48 1H22 HET A   1)   1.11039400 +1  110.3796220 +1   58.7762290 +1    28     4     1
  H(HETATM   49 2H22 HET A   1)   1.11164400 +1  110.1762780 +1  -63.3307110 +1    28     4     1
  H(HETATM   50 3H22 HET A   1)   1.10871700 +1  108.9658110 +1  177.8170520 +1    28     4     1
  H(HETATM   51 1H23 HET A   1)   1.11190000 +1  109.9106190 +1   66.9062510 +1    29     5     4
  H(HETATM   52 2H23 HET A   1)   1.10942900 +1  110.8760790 +1  -56.1055430 +1    29     5     4
  H(HETATM   53 3H23 HET A   1)   1.10901900 +1  108.8189240 +1 -174.8287430 +1    29     5     4

 XPARAM 
  1  1    0.0000  1  2    0.0000  1  3    0.0000  2  1    5.5424  2  2    0.0000
  2  3    0.0000  3  1    2.8083  3  2    1.0360  3  3    0.0000  4  1    9.1103
  4  2    1.3268  4  3    3.2409  5  1    2.8432  5  2    1.2849  5  3    3.1421
  6  1    4.0762  6  2    1.1013  6  3    3.0612  7  1    1.3980  7  2    2.1719
  7  3    0.0153  8  1    1.4587  8  2    2.0499  8  3    0.0033  9  1    1.4536
  9  2    2.1060  9  3    6.2526 10  1    1.4761 10  2    2.1728 10  3    3.1530
 11  1    1.4154 11  2    2.0521 11  3    0.0305 12  1    1.4244 12  2    2.0742
 12  3    3.1502 13  1    2.7171 13  2    1.0717 13  3    3.0599 14  1    1.4137
 14  2    2.0596 14  3    3.1172 15  1    3.6939 15  2    0.1977 15  3    6.2543
 16  1    1.3697 16  2    2.1453 16  3    0.0201 17  1    2.3909 17  2    1.0672
 17  3    6.2699 18  1    1.4312 18  2    2.2165 18  3    0.0179 19  1    1.4742
 19  2    1.9075 19  3    3.1541 20  1    1.4026 20  2    2.1335 20  3    3.1629
 21  1    1.3595 21  2    1.0407 21  3    6.2760 22  1    1.3928 22  2    2.1158
 22  3    3.1405 23  1    1.3627 23  2    0.2495 23  3    3.2653 24  1    1.3625
 24  2    0.9913 24  3    0.0500 25  1    1.3813 25  2    2.2064 25  3    0.0687
 26  1    1.3805 26  2    2.2373 26  3    5.6189 27  1    1.3807 27  2    2.9887
 27  3    2.4231 28  1    1.3815 28  2    1.9768 28  3    6.2758 29  1    1.3791
 29  2    1.2524 29  3    3.3138 30  1    1.0834 30  2    2.0760 30  3    6.2318
 31  1    1.0616 31  2    2.2020 31  3    3.1599 32  1    1.0856 32  2    2.0623
 32  3    3.1334 33  1    1.0461 33  2    2.1658 33  3    6.2683 34  1    1.1105
 34  2    1.9181 34  3    4.2408 35  1    1.1122 35  2    1.9976 35  3    6.2723
 36  1    1.1100 36  2    1.9162 36  3    2.0118 37  1    1.0855 37  2    2.0981
 37  3    3.1313 38  1    1.0783 38  2    2.0644 38  3    0.0336 39  1    1.1091
 39  2    1.9011 39  3    3.1117 40  1    1.1110 40  2    1.9249 40  3    1.0383
 41  1    1.1107 41  2    1.9252 41  3    5.1865 42  1    1.1043 42  2    1.9727
 42  3    1.1585 43  1    1.1115 43  2    1.9072 43  3    5.2802 44  1    1.1090
 44  2    1.8942 44  3    3.2281 45  1    1.1122 45  2    1.9201 45  3    4.9551
 46  1    1.1096 46  2    1.9303 46  3    2.8250 47  1    1.1092 47  2    1.9028
 47  3    0.7406 48  1    1.1104 48  2    1.9265 48  3    1.0258 49  1    1.1116
 49  2    1.9229 49  3    5.1779 50  1    1.1087 50  2    1.9018 50  3    3.1035
 51  1    1.1119 51  2    1.9183 51  3    1.1677 52  1    1.1094 52  2    1.9352
 52  3    5.3040 53  1    1.1090 53  2    1.8992 53  3    3.2318
 grad
       0.00001    0.00002   -0.00000   36.81298    0.00000    0.00000  -19.66531  -69.84866
       0.00000   42.42548  124.07571   18.17892  -12.54026   -1.90646   -0.68770   34.28405
     123.28217    5.48082  -22.32209  -99.72034    5.83558  -99.26801   68.66204    2.05449
     -20.29241 -133.72692   -1.64719  -43.03005  204.48187   -7.45920    3.30613  -54.57335
      -3.41755   28.66262 -102.85392    0.76704  -46.29480  -97.94227   13.00301  -12.30056
    -166.54443    3.72896   25.44248   59.60871   -0.37312   26.45134  -51.13304    0.02590
      31.50603  -45.52423  -39.96537    2.29573    0.99505   -1.23169    7.18404  -19.46252
       0.52464  -31.61837   11.38535   -1.42054   -8.23933  -27.37447  -10.84648  -18.52359
     -20.07277    0.91377    1.10656   98.23836   -3.66337   35.03592   20.52713    5.53195
     -19.32375   27.16722    0.39404  -17.78067   31.35638   -3.34159  -21.65449  -19.81776
       2.77714  -19.02912   25.17694    0.73414  -21.06106   30.54934   -1.95753  -16.20148
       3.83453   -0.45126  -23.92566   24.32549   -0.02780   -9.55970   -2.81959   -0.60319
     -22.41617   11.76048    0.56177    0.92431   -1.86804    7.78120    1.36333    7.16444
       0.35432    0.41059   -1.88286   -8.00612   -6.91432    0.65329   -0.37162   -7.82718
      -1.88568   -0.18171    7.39999   16.32594   -0.06213    5.58692   -1.22948   -0.00092
       5.50521   -1.05548    0.06097    2.63274    4.23398    2.62012    5.81140   -2.26066
      -2.55484    6.74195   16.85707    0.41993    5.94612   -1.74617   -0.04425    5.28423
      -1.30860    0.60556    7.29356   15.98578   -0.38871    5.91715   -1.45170   -0.58670
       6.36134   -1.54101    0.48983    6.96839   15.71446    0.03437    6.45101   -2.10170
       2.21887    5.35754   -0.24436   -2.11409    6.84649   16.39306   -0.14734
 CYCLE:     1 TIME:   0.078 TIME LEFT:  2.00D  GRAD.:   467.821 HEAT:  69.15520

          HESSIAN HAS  0 NEGATIVE EIGENVALUE(S)
  MIN SEARCH, CORRECT HESSIAN, TRYING PURE NR STEP
 LAMBDA THAT MINIMIZES ALONG ALL MODES =        0.000000000
 PURE NR-STEP HAS LENGTH   0.87503
 LAMBDA THAT MINIMIZES ALONG ALL MODES =     -251.666418383
 P-RFO-STEP   HAS LENGTH   0.57357
 LAMBDA THAT MINIMIZES ALONG ALL MODES =    -1678.961776892
 QA/TRIM-STEP HAS LENGTH   0.20000

  HEAT OF FORMATION        472.77144006003800    
 PARAMETERS        0.007  -0.016   0.000   5.536   0.021   0.001   2.817   1.071
   0.000   9.094   1.316   3.233   2.847   1.290   3.143   4.064   1.056   3.059

   1.402   2.212   0.012   1.492   2.013   0.002   1.456   2.164   6.253   1.487

   2.075   3.156   1.410   2.071   0.032   1.409   2.117   3.149   2.735   1.120

   3.053   1.414   2.131   3.115   3.689   0.180   6.255   1.356   2.163   0.019

   2.379   1.091   6.291   1.426   2.210   0.018   1.468   1.912   3.153   1.410

   2.124   3.163   1.363   1.050   6.282   1.395   2.120   3.139   1.367   0.200

   3.268   1.351   0.976   0.047   1.384   2.188   0.068   1.382   2.219   5.620

   1.380   2.993   2.421   1.384   1.962   6.275   1.387   1.234   3.315   1.088

   2.073   6.232   1.069   2.189   3.160   1.088   2.062   3.133   1.053   2.159

   6.268   1.109   1.917   4.236   1.110   1.993   6.272   1.109   1.915   2.016

   1.087   2.096   3.131   1.080   2.063   0.033   1.105   1.892   3.112   1.108

   1.923   1.038   1.108   1.924   5.186   1.102   1.969   1.157   1.108   1.907

   5.281   1.106   1.885   3.228   1.109   1.919   4.955   1.107   1.929   2.825

   1.106   1.893   0.741   1.107   1.925   1.026   1.108   1.922   5.177   1.105

   1.893   3.103   1.109   1.917   1.166   1.106   1.934   5.305   1.105   1.890

   3.232
 GRADIENT          0.000   0.000  -0.000 275.017   0.000   0.000-126.673 531.590
   0.000-622.6052941.918  13.058 373.903-819.114 -28.112 355.5965920.616********

-370.8783219.595  35.833 184.965-817.654  73.791 -58.730-377.882  80.341 478.085

******** -40.704  88.765-312.346  33.151-263.8221993.127  18.381-237.225-904.464

1084.670  53.002 417.077 -10.940  12.019 848.974  -0.787 -50.940 195.730  -2.731

 135.024 534.041  13.587 -45.621-105.485   6.053 -24.230  11.229   0.943 420.958

-860.664 -45.747  16.254  55.194   5.652  21.210 -41.207  -0.679  11.276  78.099

  -0.643 233.209 834.587 -30.412 -23.327  17.102   0.367 -45.248   5.453  -3.604

 -24.704 -16.219   2.301 -21.940  18.813   0.164 -17.475  22.427  -0.173 166.629

 -87.428  92.206 -18.832  10.846  -0.798  11.366 -33.605  -0.269  -7.784 -11.417

  -1.917  -1.411  -3.178   2.155  -4.413   4.065   0.259  -2.087  -3.618  -2.104

 -42.924  36.067   4.423  -3.285  -8.231   1.025   5.302  11.992  -0.066   4.593

  -2.282  -0.365   4.374  -2.107   0.448  -0.276   3.217   1.474   2.891  -2.200

  -1.600   2.299  13.949   0.230   3.791  -1.982  -0.167   3.379  -1.336   0.673

   4.770  13.690  -0.345   4.448  -1.834  -0.541   4.844  -1.703   0.333   4.828

  12.776   0.051   5.107  -1.765   1.889   4.081  -0.311  -1.671   5.005  13.718

  -0.161
       HoF         ACTUAL,  PREDICTED ENERGY CHANGE, RATIO
   472.7714401   403.6162430         -77.9198595   -5.1798893
 UNACCEPTABLE RATIO, REJECTING STEP, REDUCING DMAX TO 0.1000
  MIN SEARCH, CORRECT HESSIAN, TRYING PURE NR STEP
 LAMBDA THAT MINIMIZES ALONG ALL MODES =        0.000000000
 PURE NR-STEP HAS LENGTH   0.87503
 LAMBDA THAT MINIMIZES ALONG ALL MODES =     -251.666418383
 P-RFO-STEP   HAS LENGTH   0.57357
 LAMBDA THAT MINIMIZES ALONG ALL MODES =    -3893.566797981
 QA/TRIM-STEP HAS LENGTH   0.10000

  HEAT OF FORMATION        449.04682304763992    
 PARAMETERS        0.004  -0.008   0.000   5.539   0.010   0.001   2.813   1.053
   0.000   9.101   1.321   3.237   2.845   1.287   3.142   4.069   1.079   3.060

   1.400   2.192   0.014   1.477   2.031   0.003   1.455   2.135   6.253   1.482

   2.124   3.155   1.413   2.062   0.031   1.416   2.095   3.150   2.727   1.095

   3.057   1.414   2.095   3.116   3.691   0.189   6.255   1.362   2.154   0.020

   2.385   1.079   6.280   1.428   2.213   0.018   1.471   1.910   3.154   1.407

   2.129   3.163   1.361   1.045   6.279   1.394   2.118   3.140   1.365   0.225

   3.266   1.356   0.984   0.049   1.383   2.197   0.068   1.381   2.228   5.619

   1.380   2.991   2.422   1.383   1.969   6.275   1.383   1.243   3.314   1.086

   2.074   6.232   1.066   2.195   3.160   1.087   2.062   3.133   1.050   2.162

   6.268   1.110   1.918   4.239   1.111   1.995   6.272   1.109   1.916   2.014

   1.086   2.097   3.131   1.079   2.064   0.034   1.107   1.897   3.112   1.109

   1.924   1.038   1.109   1.925   5.186   1.103   1.971   1.158   1.110   1.907

   5.281   1.107   1.889   3.228   1.110   1.920   4.955   1.108   1.930   2.825

   1.107   1.898   0.741   1.109   1.926   1.026   1.110   1.923   5.178   1.107

   1.897   3.103   1.110   1.918   1.167   1.108   1.934   5.304   1.107   1.895

   3.232
 GRADIENT          0.000   0.000  -0.000 129.943   0.000   0.000-108.727  64.467
   0.000-201.0201165.864 -72.997 134.430-290.089   7.285 581.794****************

-845.739-633.414 671.875****************1277.218-584.606********1294.406 213.985

********  17.544 722.103******** 604.751-142.158 849.514 -10.087-607.9123931.223

********  58.166 360.153  -9.981   0.212 352.531   1.081 -59.632 184.893  -2.273

 125.063 131.754  13.928 -21.150 -40.865   1.843  -8.057  -0.998  -0.306 135.899

-339.106  -2.823  11.860   5.909  -3.395  11.811 -24.953   0.117   5.694  81.109

  -1.710  99.839 317.195   3.817 -21.290  22.475   0.397 -31.692  20.091  -4.338

 -23.281 -18.058   2.594 -19.863  22.628   0.485 -18.868  26.994  -1.0771024.739

-136.218 778.121 -21.208  19.314  -0.317   6.861 -23.378  -0.330 -16.318   2.423

  -0.680   0.551  -2.213   5.265  -1.616   8.766   0.172  -0.118  -2.540  -5.335

 -21.335  17.411   1.216  -6.531  -5.209   0.418   6.069  14.573  -0.072   5.013

  -1.964  -0.390   4.839  -1.752   0.466   0.970   3.299   1.932   4.236  -2.286

  -1.763   3.964  16.161   0.212   4.643  -1.894  -0.195   4.171  -1.347   0.734

   5.820  15.026  -0.357   5.113  -1.619  -0.486   5.555  -1.596   0.319   5.990

  14.301   0.044   5.706  -1.898   2.107   4.663  -0.245  -1.952   5.953  15.126

  -0.154
       HoF         ACTUAL,  PREDICTED ENERGY CHANGE, RATIO
   449.0468230   379.8916260         -41.6729370   -9.1160272
 UNACCEPTABLE RATIO, REJECTING STEP, REDUCING DMAX TO 0.0500
  MIN SEARCH, CORRECT HESSIAN, TRYING PURE NR STEP
 LAMBDA THAT MINIMIZES ALONG ALL MODES =        0.000000000
 PURE NR-STEP HAS LENGTH   0.87503
 LAMBDA THAT MINIMIZES ALONG ALL MODES =     -251.666418383
 P-RFO-STEP   HAS LENGTH   0.57357
 LAMBDA THAT MINIMIZES ALONG ALL MODES =    -8333.187528320
 QA/TRIM-STEP HAS LENGTH   0.05000

  HEAT OF FORMATION        76.329326938197482    
 PARAMETERS        0.002  -0.004   0.000   5.540   0.005   0.000   2.811   1.045
   0.000   9.106   1.324   3.239   2.844   1.286   3.142   4.073   1.090   3.061

   1.399   2.182   0.014   1.468   2.041   0.003   1.454   2.120   6.253   1.479

   2.149   3.154   1.414   2.057   0.031   1.420   2.085   3.150   2.722   1.084

   3.058   1.414   2.077   3.117   3.692   0.193   6.254   1.366   2.150   0.020

   2.388   1.073   6.275   1.430   2.215   0.018   1.472   1.909   3.154   1.405

   2.131   3.163   1.361   1.043   6.277   1.393   2.117   3.140   1.364   0.237

   3.266   1.359   0.987   0.049   1.382   2.202   0.069   1.381   2.233   5.619

   1.381   2.990   2.423   1.382   1.973   6.276   1.381   1.248   3.314   1.085

   2.075   6.232   1.064   2.199   3.160   1.086   2.062   3.133   1.048   2.164

   6.268   1.110   1.918   4.240   1.112   1.996   6.272   1.110   1.916   2.013

   1.086   2.098   3.131   1.079   2.064   0.034   1.108   1.899   3.112   1.110

   1.925   1.038   1.110   1.925   5.186   1.104   1.972   1.158   1.111   1.907

   5.280   1.108   1.892   3.228   1.111   1.920   4.955   1.109   1.930   2.825

   1.108   1.900   0.741   1.109   1.926   1.026   1.111   1.923   5.178   1.108

   1.900   3.103   1.111   1.918   1.167   1.109   1.935   5.304   1.108   1.897

   3.232
 GRADIENT          0.000   0.000  -0.000  66.804   0.000   0.000 -12.917 125.393
   0.000 -61.448 555.140 -35.353  51.545-120.307   5.493  45.026 205.7231187.773

  24.767 675.385  -2.000 220.042  12.883   2.711  19.114 180.278  -1.164 100.345

-645.146   9.928 -68.233  50.640   0.341 -75.374 392.667  -7.845  -4.663 609.970

********  42.922 228.436  -6.372  17.314 201.566  -0.399 -44.367 128.626  -1.667

  25.426  95.398 -27.980  -7.305 -16.257   0.146  -2.373 -23.090   0.835  43.944

-145.510   0.493  -3.123  -3.730  -7.422  -8.228 -25.886   0.594   3.783  85.359

  -2.514  59.749 146.340   6.674 -20.115  24.962   0.434 -22.224  26.474  -3.379

 -22.362 -18.949   2.655 -19.419  23.808   0.600 -19.859  28.832  -1.551  -7.446

  -8.993  10.028 -22.751  22.335  -0.167   0.463 -15.048  -0.401 -19.302   7.241

  -0.061   0.153  -2.603   7.326   0.688   5.137  -0.085  -0.339  -2.480  -7.201

 -13.208   8.893   0.265  -6.256  -3.561   0.097   6.869  15.282  -0.065   5.262

  -1.506  -0.041   5.139  -1.343   0.109   2.040   4.113   2.411   5.204  -2.174

  -2.507   5.884  16.068   0.494   5.375  -1.797  -0.043   4.774  -1.327   0.593

   6.602  15.386  -0.378   5.518  -1.558  -0.584   5.967  -1.586   0.449   6.351

  15.021   0.039   6.055  -2.009   2.149   4.993  -0.249  -2.020   6.327  15.800

  -0.151
       HoF         ACTUAL,  PREDICTED ENERGY CHANGE, RATIO
    76.3293269     7.1741299         -21.5241583   -0.3333059
 UNACCEPTABLE RATIO, REJECTING STEP, REDUCING DMAX TO 0.0250
  MIN SEARCH, CORRECT HESSIAN, TRYING PURE NR STEP
 LAMBDA THAT MINIMIZES ALONG ALL MODES =        0.000000000
 PURE NR-STEP HAS LENGTH   0.87503
 LAMBDA THAT MINIMIZES ALONG ALL MODES =     -251.666418383
 P-RFO-STEP   HAS LENGTH   0.57357
 LAMBDA THAT MINIMIZES ALONG ALL MODES =   -17218.572047546
 QA/TRIM-STEP HAS LENGTH   0.02500

  HEAT OF FORMATION        65.798426835710416    
 PARAMETERS        0.001  -0.002   0.000   5.541   0.003   0.000   2.810   1.040
   0.000   9.108   1.325   3.240   2.844   1.285   3.142   4.074   1.096   3.061

   1.399   2.177   0.015   1.464   2.045   0.003   1.454   2.113   6.253   1.478

   2.161   3.153   1.415   2.054   0.031   1.422   2.079   3.150   2.720   1.078

   3.059   1.414   2.068   3.117   3.693   0.196   6.254   1.368   2.147   0.020

   2.389   1.070   6.272   1.430   2.216   0.018   1.473   1.908   3.154   1.404

   2.132   3.163   1.360   1.042   6.277   1.393   2.116   3.140   1.363   0.243

   3.266   1.361   0.989   0.050   1.382   2.204   0.069   1.381   2.235   5.619

   1.381   2.989   2.423   1.382   1.975   6.276   1.380   1.250   3.314   1.084

   2.076   6.232   1.063   2.200   3.160   1.086   2.062   3.133   1.047   2.165

   6.268   1.110   1.918   4.240   1.112   1.997   6.272   1.110   1.916   2.012

   1.086   2.098   3.131   1.079   2.064   0.034   1.109   1.900   3.112   1.111

   1.925   1.038   1.110   1.925   5.187   1.104   1.972   1.158   1.111   1.907

   5.280   1.109   1.893   3.228   1.112   1.920   4.955   1.109   1.930   2.825

   1.109   1.902   0.741   1.110   1.926   1.026   1.111   1.923   5.178   1.108

   1.901   3.103   1.111   1.918   1.168   1.109   1.935   5.304   1.108   1.898

   3.232
 GRADIENT          0.000   0.000  -0.000  50.095   0.000   0.000 -15.782  26.392
   0.000  -5.422 319.181  -9.436  17.440 -55.132   2.670  35.438 299.499  74.388

   7.105 274.744  -1.687  87.088   7.785  -1.610   2.285  40.606  -4.803  36.088

-253.089   2.353 -36.401   6.871  -2.831 -32.144 158.582  -4.114 -22.748  86.590

 -84.195  22.838  79.367  -2.706  20.849 126.322  -0.311 -19.479  61.337  -0.979

  27.845  22.518 -34.203  -2.006  -6.631  -0.546   2.380 -21.763   0.648   4.897

 -63.134  -0.051  -5.346 -15.928  -9.219 -13.157 -22.806   0.765   2.466  90.715

  -3.041  45.526  78.426   6.433 -19.740  26.062   0.404 -19.905  29.062  -3.307

 -22.044 -19.377   2.710 -19.212  24.509   0.670 -20.402  29.736  -1.763 -11.148

  -3.296   1.691 -23.300  23.410  -0.098  -3.916  -9.538  -0.508 -20.891   9.602

   0.255   0.533  -2.211   7.539   1.035   6.097   0.282   0.025  -2.214  -7.695

  -9.833   4.803  -0.085  -7.003  -2.730  -0.050   7.120  15.806  -0.063   5.412

  -1.362  -0.020   5.316  -1.193   0.083   2.347   4.177   2.522   5.496  -2.221

  -2.519   6.323  16.475   0.438   5.656  -1.767  -0.040   5.017  -1.317   0.598

   6.932  15.684  -0.384   5.715  -1.502  -0.585   6.156  -1.558   0.468   6.652

  15.367   0.036   6.249  -2.054   2.184   5.172  -0.240  -2.068   6.586  16.102

  -0.150
       HoF         ACTUAL,  PREDICTED ENERGY CHANGE, RATIO
    65.7984268    -3.3567702         -10.9353392    0.3069653
     STEPSIZE USED IS  0.02500
 CALCULATED STEP
     0.000986 -0.002019  0.000046 -0.001035  0.002552  0.000118  0.001234  0.004239
     0.000015 -0.002448 -0.001300 -0.000965  0.000604  0.000634  0.000039 -0.001822
    -0.005518 -0.000289  0.000570  0.004878 -0.000402  0.004878 -0.004582 -0.000177
     0.000437  0.007183  0.000032  0.001672 -0.012061  0.000362 -0.000754  0.002344
     0.000136 -0.002195  0.005248 -0.000105  0.002617  0.005889 -0.000737  0.000064
     0.008833 -0.000275 -0.000747 -0.002128  0.000092 -0.002089  0.002116 -0.000067
    -0.001685  0.002876  0.002301 -0.000812 -0.000782  0.000002 -0.000900  0.000577
    -0.000081  0.001073 -0.001215  0.000017  0.000515  0.001115  0.000619  0.000366
     0.000553 -0.000116  0.000585 -0.006139  0.000251 -0.001758 -0.001931 -0.000318
     0.000381 -0.002292 -0.000092  0.000214 -0.002221  0.000121 -0.000061  0.000490
    -0.000273  0.000457 -0.001836 -0.000098  0.001104 -0.002305  0.000097  0.000699
    -0.000399  0.000007  0.001107 -0.001609 -0.000019  0.000347 -0.000073  0.000016
     0.001022 -0.000853 -0.000053 -0.000203 -0.000103 -0.000463 -0.000249 -0.000580
    -0.000038 -0.000167 -0.000138  0.000443  0.000195 -0.000269  0.000002  0.000261
    -0.000177 -0.000008 -0.000551 -0.001149 -0.000012 -0.000450 -0.000191 -0.000016
    -0.000459 -0.000134 -0.000020 -0.000298 -0.000499 -0.000168 -0.000472 -0.000064
     0.000131 -0.000514 -0.001177 -0.000040 -0.000481 -0.000099 -0.000014 -0.000440
    -0.000158 -0.000051 -0.000538 -0.001167  0.000006 -0.000468 -0.000179  0.000017
    -0.000505 -0.000107 -0.000044 -0.000528 -0.001114 -0.000018 -0.000497 -0.000139
    -0.000144 -0.000453 -0.000178  0.000105 -0.000521 -0.001151 -0.000007
     NEW TRUST RADIUS =  0.02500

     HESSIAN IS BEING UPDATED USING THE BFGS UPDATE

*REMARK   3 HET = Not identified; C 23 H 24 N O 5    =    53 atoms res:    1
 PM7 CHARGE=+1 EF NOXYZ PRNT=2 PDBOUT COMPFG GRAPHF
 2,3,7,8,10-pentamethoxy-5-methylbenzo[c]phenanthridin-5-ium

  O(HETATM    1  O1  HET A   1)   0.00098593 +1   -0.0020191 +1    0.0000456 +1
  O(HETATM    2  O2  HET A   1)   5.54137630 +1    0.1462348 +1    0.0067631 +1     1     0     0
  O(HETATM    3  O3  HET A   1)   2.80956828 +1   59.6021505 +1    0.0008577 +1     2     1     0
  O(HETATM    4  O4  HET A   1)   9.10787644 +1   75.9443309 +1 -174.3630064 +1     1     2     3
  O(HETATM    5  O5  HET A   1)   2.84377732 +1   73.6533948 +1 -179.9674979 +1     4     1     2
  N(HETATM    6  N   HET A   1)   4.07438028 +1   62.7856922 +1  175.3745938 +1     2     1     3
  C(HETATM    7  C1  HET A   1)   1.39852582 +1  124.7177204 +1    0.8547768 +1     6     2     1
  C(HETATM    8  C2  HET A   1)   1.46360120 +1  117.1885426 +1    0.1786081 +1     7     6     2
  C(HETATM    9  C3  HET A   1)   1.45405169 +1  121.0740583 +1   -1.7531230 +1     8     7     6
  C(HETATM   10  C4  HET A   1)   1.47777682 +1  123.8025269 +1 -179.3241404 +1     7     6     2
  C(HETATM   11  C5  HET A   1)   1.41460815 +1  117.7134804 +1    1.7563302 +1     9     8     7
  C(HETATM   12  C6  HET A   1)   1.42216323 +1  119.1458625 +1 -179.5140199 +1    10     7     6
  C(HETATM   13  C7  HET A   1)   2.71971332 +1   61.7425856 +1  175.2746643 +1     2     1     3
  C(HETATM   14  C8  HET A   1)   1.41374521 +1  118.5105310 +1  178.5864797 +1     8     7     6
  C(HETATM   15  C9  HET A   1)   3.69318863 +1   11.2044004 +1   -1.6512649 +1     3     1     2
  C(HETATM   16  C10 HET A   1)   1.36761011 +1  123.0370230 +1    1.1497723 +1    14     8     7
  C(HETATM   17  C11 HET A   1)   2.38921429 +1   61.3116910 +1   -0.6290213 +1     3     1     2
  C(HETATM   18  C12 HET A   1)   1.43039252 +1  126.9508411 +1    1.0279101 +1    10     7     6
  C(HETATM   19  C13 HET A   1)   1.47333701 +1  109.3247640 +1 -179.2896792 +1     6     2     1
  C(HETATM   20  C14 HET A   1)   1.40369567 +1  122.1709294 +1 -178.7765315 +1    12    10     7
  C(HETATM   21  C15 HET A   1)   1.36002522 +1   59.6928123 +1   -0.3745551 +1     3     2     1
  C(HETATM   22  C16 HET A   1)   1.39312245 +1  121.2579989 +1  179.9279689 +1    21     3     2
  C(HETATM   23  C17 HET A   1)   1.36327475 +1   13.9432904 +1 -172.8961447 +1     4     1     2
  C(HETATM   24  C18 HET A   1)   1.36076761 +1   56.6887827 +1    2.8472558 +1     5     4     1
  C(HETATM   25  C19 HET A   1)   1.38169265 +1  126.2867023 +1    3.9304226 +1     1     2     3
  C(HETATM   26  C20 HET A   1)   1.38069139 +1  128.0617308 +1  -38.0551909 +1     2     1     3
  C(HETATM   27  C21 HET A   1)   1.38060738 +1  171.2680688 +1  138.8184861 +1     3     2     1
  C(HETATM   28  C22 HET A   1)   1.38192090 +1  113.1545302 +1   -0.4285999 +1     4     1     2
  C(HETATM   29  C23 HET A   1)   1.38017495 +1   71.6248279 +1 -170.1266753 +1     5     4     1
  H(HETATM   30  H7  HET A   1)   1.08408123 +1  118.9232839 +1   -2.9449147 +1    13     6     2
  H(HETATM   31  H8  HET A   1)   1.06272747 +1  126.0721303 +1 -178.9508794 +1    14     8     7
  H(HETATM   32  H10 HET A   1)   1.08597613 +1  118.1597286 +1  179.5293253 +1    16    14     8
  H(HETATM   33  H12 HET A   1)   1.04713114 +1  124.0449836 +1   -0.8585719 +1    18    10     7
  H(HETATM   34 1H13 HET A   1)   1.11029224 +1  109.8940711 +1 -117.0494244 +1    19     6     2
  H(HETATM   35 2H13 HET A   1)   1.11197776 +1  114.4220386 +1   -0.6245058 +1    19     6     2
  H(HETATM   36 3H13 HET A   1)   1.10986582 +1  109.7812213 +1  115.2909343 +1    19     6     2
  H(HETATM   37  H14 HET A   1)   1.08566674 +1  120.1945348 +1  179.4124631 +1    20    12    10
  H(HETATM   38  H16 HET A   1)   1.07852534 +1  118.2728659 +1    1.9221836 +1    22    21     3
  H(HETATM   39 1H19 HET A   1)   1.10854675 +1  108.8613740 +1  178.2858186 +1    25     1     2
  H(HETATM   40 2H19 HET A   1)   1.11056298 +1  110.2794056 +1   59.4872294 +1    25     1     2
  H(HETATM   41 3H19 HET A   1)   1.11027140 +1  110.2988125 +1  -62.8345645 +1    25     1     2
  H(HETATM   42 1H20 HET A   1)   1.10398215 +1  112.9965313 +1   66.3687590 +1    26     2     1
  H(HETATM   43 2H20 HET A   1)   1.11105492 +1  109.2725641 +1  -57.4584982 +1    26     2     1
  H(HETATM   44 3H20 HET A   1)   1.10852591 +1  108.4600998 +1 -175.0462685 +1    26     2     1
  H(HETATM   45 1H21 HET A   1)   1.11169795 +1  110.0106335 +1  -76.0927934 +1    27     3     2
  H(HETATM   46 2H21 HET A   1)   1.10915291 +1  110.5904315 +1  161.8599772 +1    27     3     2
  H(HETATM   47 3H21 HET A   1)   1.10862170 +1  108.9540169 +1   42.4331404 +1    27     3     2
  H(HETATM   48 1H22 HET A   1)   1.10992558 +1  110.3693934 +1   58.7772227 +1    28     4     1
  H(HETATM   49 2H22 HET A   1)   1.11113890 +1  110.1701683 +1  -63.3332548 +1    28     4     1
  H(HETATM   50 3H22 HET A   1)   1.10818933 +1  108.9019622 +1  177.8160255 +1    28     4     1
  H(HETATM   51 1H23 HET A   1)   1.11140348 +1  109.9026406 +1   66.8980241 +1    29     5     4
  H(HETATM   52 2H23 HET A   1)   1.10897614 +1  110.8658661 +1  -56.0995335 +1    29     5     4
  H(HETATM   53 3H23 HET A   1)   1.10849814 +1  108.7530024 +1 -174.8291693 +1    29     5     4

 XPARAM 
  1  1    0.0010  1  2   -0.0020  1  3    0.0000  2  1    5.5414  2  2    0.0026
  2  3    0.0001  3  1    2.8096  3  2    1.0403  3  3    0.0000  4  1    9.1079
  4  2    1.3255  4  3    3.2400  5  1    2.8438  5  2    1.2855  5  3    3.1422
  6  1    4.0744  6  2    1.0958  6  3    3.0609  7  1    1.3985  7  2    2.1767
  7  3    0.0149  8  1    1.4636  8  2    2.0453  8  3    0.0031  9  1    1.4541
  9  2    2.1131  9  3    6.2526 10  1    1.4778 10  2    2.1608 10  3    3.1534
 11  1    1.4146 11  2    2.0545 11  3    0.0307 12  1    1.4222 12  2    2.0795
 12  3    3.1501 13  1    2.7197 13  2    1.0776 13  3    3.0591 14  1    1.4137
 14  2    2.0684 14  3    3.1169 15  1    3.6932 15  2    0.1956 15  3    6.2544
 16  1    1.3676 16  2    2.1474 16  3    0.0201 17  1    2.3892 17  2    1.0701
 17  3    6.2722 18  1    1.4304 18  2    2.2157 18  3    0.0179 19  1    1.4733
 19  2    1.9081 19  3    3.1540 20  1    1.4037 20  2    2.1323 20  3    3.1629
 21  1    1.3600 21  2    1.0418 21  3    6.2766 22  1    1.3931 22  2    2.1164
 22  3    3.1403 23  1    1.3633 23  2    0.2434 23  3    3.2656 24  1    1.3608
 24  2    0.9894 24  3    0.0497 25  1    1.3817 25  2    2.2041 25  3    0.0686
 26  1    1.3807 26  2    2.2351 26  3    5.6190 27  1    1.3806 27  2    2.9892
 27  3    2.4228 28  1    1.3819 28  2    1.9749 28  3    6.2757 29  1    1.3802
 29  2    1.2501 29  3    3.3139 30  1    1.0841 30  2    2.0756 30  3    6.2318
 31  1    1.0627 31  2    2.2004 31  3    3.1599 32  1    1.0860 32  2    2.0623
 32  3    3.1334 33  1    1.0471 33  2    2.1650 33  3    6.2682 34  1    1.1103
 34  2    1.9180 34  3    4.2403 35  1    1.1120 35  2    1.9970 35  3    6.2723
 36  1    1.1099 36  2    1.9160 36  3    2.0122 37  1    1.0857 37  2    2.0978
 37  3    3.1313 38  1    1.0785 38  2    2.0643 38  3    0.0335 39  1    1.1085
 39  2    1.9000 39  3    3.1117 40  1    1.1106 40  2    1.9247 40  3    1.0382
 41  1    1.1103 41  2    1.9251 41  3    5.1865 42  1    1.1040 42  2    1.9722
 42  3    1.1584 43  1    1.1111 43  2    1.9072 43  3    5.2803 44  1    1.1085
 44  2    1.8930 44  3    3.2281 45  1    1.1117 45  2    1.9200 45  3    4.9551
 46  1    1.1092 46  2    1.9302 46  3    2.8250 47  1    1.1086 47  2    1.9016
 47  3    0.7406 48  1    1.1099 48  2    1.9263 48  3    1.0259 49  1    1.1111
 49  2    1.9228 49  3    5.1778 50  1    1.1082 50  2    1.9007 50  3    3.1035
 51  1    1.1114 51  2    1.9182 51  3    1.1676 52  1    1.1090 52  2    1.9350
 52  3    5.3041 53  1    1.1085 53  2    1.8981 53  3    3.2318
 grad
       0.00001    0.00002   -0.00000   50.09512    0.00000    0.00000  -15.78227   26.39201
       0.00000   -5.42223  319.18099   -9.43620   17.43955  -55.13228    2.67033   35.43802
     299.49909   74.38786    7.10488  274.74394   -1.68668   87.08823    7.78518   -1.61010
       2.28468   40.60633   -4.80255   36.08773 -253.08884    2.35296  -36.40089    6.87057
      -2.83148  -32.14379  158.58185   -4.11396  -22.74782   86.59002  -84.19548   22.83809
      79.36704   -2.70628   20.84932  126.32215   -0.31128  -19.47909   61.33708   -0.97941
      27.84550   22.51787  -34.20349   -2.00612   -6.63147   -0.54600    2.37961  -21.76337
       0.64791    4.89749  -63.13366   -0.05126   -5.34576  -15.92828   -9.21947  -13.15669
     -22.80587    0.76501    2.46558   90.71520   -3.04091   45.52578   78.42641    6.43301
     -19.73980   26.06181    0.40378  -19.90453   29.06180   -3.30704  -22.04425  -19.37741
       2.70999  -19.21152   24.50874    0.67023  -20.40187   29.73565   -1.76345  -11.14843
      -3.29607    1.69066  -23.29992   23.41022   -0.09803   -3.91594   -9.53758   -0.50792
     -20.89123    9.60199    0.25542    0.53301   -2.21100    7.53926    1.03489    6.09670
       0.28155    0.02525   -2.21354   -7.69464   -9.83340    4.80274   -0.08535   -7.00324
      -2.73026   -0.04984    7.11996   15.80617   -0.06255    5.41175   -1.36229   -0.01971
       5.31607   -1.19299    0.08304    2.34691    4.17700    2.52225    5.49619   -2.22070
      -2.51876    6.32302   16.47470    0.43805    5.65561   -1.76680   -0.04024    5.01682
      -1.31720    0.59826    6.93194   15.68367   -0.38443    5.71514   -1.50163   -0.58513
       6.15562   -1.55772    0.46796    6.65180   15.36739    0.03564    6.24936   -2.05449
       2.18420    5.17151   -0.24029   -2.06783    6.58642   16.10155   -0.14993
 CYCLE:     2 TIME:   0.172 TIME LEFT:  2.00D  GRAD.:   677.958 HEAT:  65.79843

          HESSIAN HAS  0 NEGATIVE EIGENVALUE(S)
  MIN SEARCH, CORRECT HESSIAN, TRYING PURE NR STEP
 LAMBDA THAT MINIMIZES ALONG ALL MODES =        0.000000000
 PURE NR-STEP HAS LENGTH   1.17412
 LAMBDA THAT MINIMIZES ALONG ALL MODES =     -195.602573540
 P-RFO-STEP   HAS LENGTH   0.64737
 LAMBDA THAT MINIMIZES ALONG ALL MODES =   -12375.884270308
 QA/TRIM-STEP HAS LENGTH   0.02500

  HEAT OF FORMATION        101.94340288038075    
 PARAMETERS        0.004  -0.004  -0.000   5.541   0.011   0.000   2.812   1.045
  -0.000   9.107   1.322   3.240   2.844   1.291   3.142   4.072   1.084   3.057

   1.398   2.169   0.015   1.463   2.043   0.003   1.454   2.117   6.253   1.477

   2.165   3.153   1.415   2.057   0.031   1.422   2.077   3.150   2.723   1.080

   3.062   1.412   2.072   3.117   3.693   0.192   6.254   1.367   2.147   0.020

   2.387   1.073   6.275   1.430   2.217   0.018   1.472   1.910   3.154   1.404

   2.135   3.163   1.361   1.044   6.277   1.393   2.119   3.140   1.365   0.237

   3.266   1.359   0.986   0.049   1.382   2.203   0.068   1.381   2.233   5.619

   1.380   2.991   2.423   1.383   1.974   6.276   1.382   1.248   3.314   1.085

   2.076   6.232   1.064   2.199   3.160   1.086   2.063   3.133   1.048   2.164

   6.268   1.110   1.918   4.240   1.112   1.997   6.272   1.110   1.916   2.013

   1.086   2.098   3.131   1.079   2.064   0.034   1.108   1.899   3.112   1.110

   1.925   1.038   1.110   1.925   5.186   1.104   1.972   1.158   1.110   1.907

   5.281   1.108   1.892   3.228   1.111   1.920   4.955   1.109   1.930   2.825

   1.108   1.900   0.741   1.109   1.926   1.026   1.110   1.923   5.178   1.108

   1.900   3.103   1.111   1.918   1.167   1.108   1.935   5.304   1.108   1.897

   3.232
 GRADIENT          0.000   0.000  -0.000-117.233   0.000   0.000 -34.877  26.326
   0.000 153.693-816.107  13.814 -50.939 158.087  -0.664 -66.118****************

 146.852-848.140 -39.901 132.018  38.751 -71.244  45.838 102.474 -69.777 -13.017

 618.906   9.174 -29.388  30.414 -32.734  55.893-310.106   0.847  -5.6926579.453

4961.685  14.790  72.184  -3.663  27.968 236.084   0.060 -13.853  54.475  -0.974

  36.527  66.857 -28.987  12.078 105.145   2.558   0.945 -22.040  -1.892 -50.643

 171.383   4.843   6.099 -20.219  -6.647  -5.764 -14.548   0.244 -26.807 -29.812

   1.109  -6.624 -89.896  10.712 -20.567  24.975   0.259 -21.959  25.844  -3.186

 -23.000 -18.929   2.568 -19.301  25.956   0.817 -20.001  29.459  -1.372 -20.223

   1.371 -47.698 -22.194  20.520  -0.347  -3.862  -9.598  -0.760 -31.803  24.984

  -0.646   0.590  -2.199   6.874   0.164   7.263   1.237   0.078  -2.666  -8.189

   5.887 -11.278   0.302  -6.396  -2.983   0.007   6.763  15.296  -0.048   5.119

  -1.447  -0.032   5.067  -1.282   0.088   2.104   4.124   2.444   5.065  -1.950

  -2.250   5.780  16.066   0.151   5.304  -1.798  -0.031   4.623  -1.334   0.600

   6.452  15.343  -0.399   5.564  -1.683  -0.570   5.896  -1.730   0.466   6.376

  15.044   0.032   5.908  -1.762   2.219   4.773  -0.067  -2.084   6.092  15.913

  -0.165
       HoF         ACTUAL,  PREDICTED ENERGY CHANGE, RATIO
   101.9434029    36.1449760          -9.4023902   -3.8442327
 UNACCEPTABLE RATIO, REJECTING STEP, REDUCING DMAX TO 0.0125
  MIN SEARCH, CORRECT HESSIAN, TRYING PURE NR STEP
 LAMBDA THAT MINIMIZES ALONG ALL MODES =        0.000000000
 PURE NR-STEP HAS LENGTH   1.17412
 LAMBDA THAT MINIMIZES ALONG ALL MODES =     -195.602573540
 P-RFO-STEP   HAS LENGTH   0.64737
 LAMBDA THAT MINIMIZES ALONG ALL MODES =   -27868.742441842
 QA/TRIM-STEP HAS LENGTH   0.01250

  HEAT OF FORMATION        69.482964132563211    
 PARAMETERS        0.002  -0.003  -0.000   5.541   0.007   0.000   2.811   1.042
  -0.000   9.108   1.324   3.240   2.844   1.288   3.142   4.074   1.090   3.059

   1.398   2.172   0.015   1.463   2.045   0.003   1.454   2.114   6.253   1.477

   2.164   3.153   1.415   2.056   0.031   1.422   2.078   3.150   2.721   1.078

   3.061   1.413   2.069   3.117   3.693   0.194   6.254   1.367   2.147   0.020

   2.388   1.071   6.273   1.430   2.216   0.018   1.473   1.909   3.154   1.404

   2.134   3.163   1.361   1.043   6.277   1.393   2.118   3.140   1.364   0.240

   3.266   1.360   0.988   0.049   1.382   2.204   0.069   1.381   2.234   5.619

   1.380   2.990   2.423   1.382   1.974   6.276   1.381   1.249   3.314   1.084

   2.076   6.232   1.063   2.200   3.160   1.086   2.063   3.133   1.048   2.165

   6.268   1.110   1.918   4.240   1.112   1.997   6.272   1.110   1.916   2.012

   1.086   2.098   3.131   1.079   2.064   0.034   1.108   1.899   3.112   1.110

   1.925   1.038   1.110   1.925   5.186   1.104   1.972   1.158   1.111   1.907

   5.280   1.108   1.892   3.228   1.111   1.920   4.955   1.109   1.930   2.825

   1.108   1.901   0.741   1.110   1.926   1.026   1.111   1.923   5.178   1.108

   1.900   3.103   1.111   1.918   1.167   1.109   1.935   5.304   1.108   1.898

   3.232
 GRADIENT          0.000   0.000  -0.000 -53.042   0.000   0.000 -25.260  13.659
   0.000 110.147-405.515  16.527 -34.022  96.727  -1.323 -34.279********-593.626

  94.721-473.557  -0.320 105.390  63.722 -17.546  24.637  84.624 -19.726 -12.928

 357.148   2.930 -38.261  24.712  -9.207  31.356-183.032   0.929 -14.482 206.559

 608.865  15.094  52.044  -2.317  24.779 170.006  -0.216 -11.970  47.198  -0.964

  32.384  36.462 -31.283   4.754  55.097   1.401   0.181 -25.941   0.376 -42.827

 100.977   1.853   0.346 -19.134  -7.900  -9.410 -18.033   0.469 -15.775  24.714

  -0.751   5.690 -46.578   8.561 -20.079  25.650   0.371 -20.803  27.663  -3.349

 -22.477 -19.159   2.652 -19.152  25.486   0.737 -20.179  29.806  -1.592 -10.411

  -5.004  -8.104 -22.737  22.125  -0.196  -4.363  -8.870  -0.577 -26.774  17.837

  -0.135   0.487  -2.283   7.519   0.851   5.681   0.636  -0.007  -2.350  -7.935

  -0.002  -4.889   0.184  -6.783  -2.764  -0.005   6.960  15.610  -0.059   5.295

  -1.401  -0.032   5.199  -1.235   0.094   2.219   4.169   2.488   5.307  -2.105

  -2.451   6.089  16.244   0.375   5.482  -1.774  -0.040   4.844  -1.320   0.599

   6.723  15.534  -0.386   5.664  -1.598  -0.573   6.069  -1.655   0.462   6.554

  15.246   0.035   6.090  -1.895   2.215   4.990  -0.145  -2.092   6.373  16.048

  -0.156
       HoF         ACTUAL,  PREDICTED ENERGY CHANGE, RATIO
    69.4829641     3.6845373          -5.3475558   -0.6890133
 UNACCEPTABLE RATIO, REJECTING STEP, REDUCING DMAX TO 0.0062
  MIN SEARCH, CORRECT HESSIAN, TRYING PURE NR STEP
 LAMBDA THAT MINIMIZES ALONG ALL MODES =        0.000000000
 PURE NR-STEP HAS LENGTH   1.17412
 LAMBDA THAT MINIMIZES ALONG ALL MODES =     -195.602573540
 P-RFO-STEP   HAS LENGTH   0.64737
 LAMBDA THAT MINIMIZES ALONG ALL MODES =   -66082.239797500
 QA/TRIM-STEP HAS LENGTH   0.00625

  HEAT OF FORMATION        65.207471075103967    
 PARAMETERS        0.002  -0.002  -0.000   5.541   0.004   0.000   2.810   1.041
  -0.000   9.108   1.325   3.240   2.844   1.287   3.142   4.074   1.093   3.060

   1.398   2.174   0.015   1.463   2.045   0.003   1.454   2.113   6.253   1.477

   2.163   3.153   1.415   2.055   0.031   1.422   2.078   3.150   2.720   1.078

   3.060   1.413   2.068   3.117   3.693   0.195   6.254   1.368   2.147   0.020

   2.389   1.071   6.273   1.430   2.216   0.018   1.473   1.909   3.154   1.404

   2.133   3.163   1.360   1.042   6.277   1.393   2.117   3.140   1.364   0.242

   3.266   1.360   0.989   0.050   1.382   2.204   0.069   1.381   2.235   5.619

   1.380   2.990   2.423   1.382   1.975   6.276   1.381   1.250   3.314   1.084

   2.076   6.232   1.063   2.200   3.160   1.086   2.062   3.133   1.047   2.165

   6.268   1.110   1.918   4.240   1.112   1.997   6.272   1.110   1.916   2.012

   1.086   2.098   3.131   1.079   2.064   0.034   1.108   1.900   3.112   1.110

   1.925   1.038   1.110   1.925   5.187   1.104   1.972   1.158   1.111   1.907

   5.280   1.108   1.893   3.228   1.112   1.920   4.955   1.109   1.930   2.825

   1.108   1.901   0.741   1.110   1.926   1.026   1.111   1.923   5.178   1.108

   1.901   3.103   1.111   1.918   1.168   1.109   1.935   5.304   1.108   1.898

   3.232
 GRADIENT          0.000   0.000  -0.000  -7.432   0.000   0.000 -20.656  14.558
   0.000  65.461 -92.123  10.033 -14.671  36.951  -0.365  -6.157-486.019-120.065

  53.546-172.089   2.606  88.456  39.353  -8.199  12.625  56.037 -11.036   1.358

 113.939   1.159 -35.905  13.867  -5.550   6.475 -51.406  -0.445 -19.455  93.235

 129.300  17.513  55.067  -2.208  23.055 143.643  -0.278 -13.793  49.485  -0.937

  30.397  25.730 -33.035   1.152  25.157   0.481   1.430 -23.971   0.512 -26.870

  35.285   0.517  -2.711 -17.981  -8.637 -11.534 -20.293   0.626  -7.651  57.202

  -1.887  20.636   0.973   7.345 -19.878  25.919   0.391 -20.251  28.477  -3.347

 -22.237 -19.289   2.685 -19.166  25.075   0.704 -20.330  29.884  -1.689 -10.810

  -4.026  -2.217 -23.058  22.854  -0.140  -4.400  -8.868  -0.539 -23.940  13.844

   0.089   0.525  -2.240   7.565   0.967   5.894   0.421   0.026  -2.252  -7.821

  -4.294  -0.562   0.072  -6.942  -2.702  -0.031   7.054  15.737  -0.061   5.363

  -1.376  -0.026   5.265  -1.208   0.089   2.293   4.176   2.509   5.418  -2.164

  -2.492   6.224  16.376   0.413   5.581  -1.771  -0.041   4.943  -1.318   0.600

   6.845  15.625  -0.385   5.699  -1.547  -0.578   6.125  -1.604   0.465   6.619

  15.324   0.036   6.178  -1.976   2.203   5.089  -0.193  -2.085   6.495  16.092

  -0.153
       HoF         ACTUAL,  PREDICTED ENERGY CHANGE, RATIO
    65.2074711    -0.5909558          -3.0003286    0.1969637
     STEPSIZE USED IS  0.00625
 CALCULATED STEP
     0.000651 -0.000218 -0.000079 -0.000051  0.001904 -0.000008  0.000503  0.000801
    -0.000028  0.000019 -0.000881  0.000101 -0.000033  0.001467 -0.000053 -0.000342
    -0.002661 -0.000888 -0.000157 -0.002531 -0.000027 -0.000756 -0.000035 -0.000016
    -0.000156  0.000222  0.000035 -0.000444  0.002451 -0.000026  0.000290  0.000394
     0.000017  0.000110 -0.001215  0.000018  0.000596  0.000027  0.000901 -0.000370
    -0.000083 -0.000009  0.000103 -0.000701 -0.000020 -0.000015 -0.000260 -0.000016
    -0.000286  0.000429  0.000508 -0.000152  0.000358 -0.000015 -0.000152  0.000580
    -0.000038 -0.000119  0.000924 -0.000021  0.000241  0.000466  0.000104  0.000047
     0.000568 -0.000039  0.000415 -0.001165 -0.000002 -0.000405 -0.000712 -0.000135
     0.000129 -0.000127 -0.000032  0.000055 -0.000244  0.000024 -0.000121  0.000532
    -0.000058  0.000130 -0.000177 -0.000039  0.000422 -0.000221 -0.000010  0.000129
     0.000052 -0.000027  0.000293 -0.000318 -0.000007  0.000035  0.000158 -0.000001
     0.000253 -0.000128 -0.000014 -0.000043  0.000069 -0.000124 -0.000064 -0.000065
    -0.000014 -0.000028  0.000077  0.000108  0.000089 -0.000019 -0.000007  0.000073
     0.000087 -0.000008 -0.000135 -0.000198 -0.000009 -0.000105  0.000068 -0.000009
    -0.000117  0.000051 -0.000011 -0.000065 -0.000016 -0.000048 -0.000119  0.000067
     0.000029 -0.000123 -0.000208 -0.000016 -0.000121  0.000061 -0.000009 -0.000106
     0.000062 -0.000018 -0.000125 -0.000187 -0.000004 -0.000110  0.000071 -0.000001
    -0.000129  0.000057 -0.000017 -0.000128 -0.000191 -0.000010 -0.000117  0.000079
    -0.000042 -0.000116  0.000037  0.000022 -0.000127 -0.000202 -0.000007
     NEW TRUST RADIUS =  0.00625
*REMARK   3 HET = Not identified; C 23 H 24 N O 5    =    53 atoms res:    1
 PM7 CHARGE=+1 EF NOXYZ PRNT=2 PDBOUT COMPFG GRAPHF
 2,3,7,8,10-pentamethoxy-5-methylbenzo[c]phenanthridin-5-ium

  O(HETATM    1  O1  HET A   1)   0.00163671 +1   -0.0022368 +1   -0.0000332 +1
  O(HETATM    2  O2  HET A   1)   5.54132515 +1    0.2553329 +1    0.0063254 +1     1     0     0
  O(HETATM    3  O3  HET A   1)   2.81007172 +1   59.6480390 +1   -0.0007500 +1     2     1     0
  O(HETATM    4  O4  HET A   1)   9.10789501 +1   75.8938546 +1 -174.3572036 +1     1     2     3
  O(HETATM    5  O5  HET A   1)   2.84374385 +1   73.7374630 +1 -179.9705091 +1     4     1     2
  N(HETATM    6  N   HET A   1)   4.07403829 +1   62.6332421 +1  175.3236867 +1     2     1     3
  C(HETATM    7  C1  HET A   1)   1.39836904 +1  124.5727151 +1    0.8532113 +1     6     2     1
  C(HETATM    8  C2  HET A   1)   1.46284470 +1  117.1865446 +1    0.1777089 +1     7     6     2
  C(HETATM    9  C3  HET A   1)   1.45389525 +1  121.0868026 +1   -1.7511179 +1     8     7     6
  C(HETATM   10  C4  HET A   1)   1.47733270 +1  123.9429388 +1 -179.3256401 +1     7     6     2
  C(HETATM   11  C5  HET A   1)   1.41489804 +1  117.7360296 +1    1.7573248 +1     9     8     7
  C(HETATM   12  C6  HET A   1)   1.42227337 +1  119.0762433 +1 -179.5130041 +1    10     7     6
  C(HETATM   13  C7  HET A   1)   2.72030947 +1   61.7441089 +1  175.3262901 +1     2     1     3
  C(HETATM   14  C8  HET A   1)   1.41337553 +1  118.5057999 +1  178.5859502 +1     8     7     6
  C(HETATM   15  C9  HET A   1)   3.69329193 +1   11.1642173 +1   -1.6524044 +1     3     1     2
  C(HETATM   16  C10 HET A   1)   1.36759553 +1  123.0221278 +1    1.1488780 +1    14     8     7
  C(HETATM   17  C11 HET A   1)   2.38892837 +1   61.3362926 +1   -0.5999262 +1     3     1     2
  C(HETATM   18  C12 HET A   1)   1.43024067 +1  126.9713639 +1    1.0270721 +1    10     7     6
  C(HETATM   19  C13 HET A   1)   1.47318492 +1  109.3580162 +1 -179.2918510 +1     6     2     1
  C(HETATM   20  C14 HET A   1)   1.40357666 +1  122.2238596 +1 -178.7777337 +1    12    10     7
  C(HETATM   21  C15 HET A   1)   1.36026620 +1   59.7194922 +1   -0.3685705 +1     3     2     1
  C(HETATM   22  C16 HET A   1)   1.39316907 +1  121.2905452 +1  179.9257351 +1    21     3     2
  C(HETATM   23  C17 HET A   1)   1.36368995 +1   13.8765338 +1 -172.8962610 +1     4     1     2
  C(HETATM   24  C18 HET A   1)   1.36036256 +1   56.6480079 +1    2.8395270 +1     5     4     1
  C(HETATM   25  C19 HET A   1)   1.38182198 +1  126.2794500 +1    3.9285874 +1     1     2     3
  C(HETATM   26  C20 HET A   1)   1.38074604 +1  128.0477734 +1  -38.0537924 +1     2     1     3
  C(HETATM   27  C21 HET A   1)   1.38048675 +1  171.2985677 +1  138.8151902 +1     3     2     1
  C(HETATM   28  C22 HET A   1)   1.38205050 +1  113.1443853 +1   -0.4308406 +1     4     1     2
  C(HETATM   29  C23 HET A   1)   1.38059646 +1   71.6121850 +1 -170.1272680 +1     5     4     1
  H(HETATM   30  H7  HET A   1)   1.08421038 +1  118.9262575 +1   -2.9464533 +1    13     6     2
  H(HETATM   31  H8  HET A   1)   1.06302012 +1  126.0538817 +1 -178.9512996 +1    14     8     7
  H(HETATM   32  H10 HET A   1)   1.08601068 +1  118.1687914 +1  179.5292693 +1    16    14     8
  H(HETATM   33  H12 HET A   1)   1.04738453 +1  124.0376524 +1   -0.8593556 +1    18    10     7
  H(HETATM   34 1H13 HET A   1)   1.11024961 +1  109.8980282 +1 -117.0565295 +1    19     6     2
  H(HETATM   35 2H13 HET A   1)   1.11191387 +1  114.4183002 +1   -0.6252867 +1    19     6     2
  H(HETATM   36 3H13 HET A   1)   1.10983805 +1  109.7856301 +1  115.2971092 +1    19     6     2
  H(HETATM   37  H14 HET A   1)   1.08575616 +1  120.1934524 +1  179.4120878 +1    20    12    10
  H(HETATM   38  H16 HET A   1)   1.07859871 +1  118.2778419 +1    1.9217381 +1    22    21     3
  H(HETATM   39 1H19 HET A   1)   1.10841164 +1  108.8500103 +1  178.2853295 +1    25     1     2
  H(HETATM   40 2H19 HET A   1)   1.11045793 +1  110.2833222 +1   59.4867049 +1    25     1     2
  H(HETATM   41 3H19 HET A   1)   1.11015450 +1  110.3017442 +1  -62.8351695 +1    25     1     2
  H(HETATM   42 1H20 HET A   1)   1.10391749 +1  112.9956364 +1   66.3660296 +1    26     2     1
  H(HETATM   43 2H20 HET A   1)   1.11093631 +1  109.2764014 +1  -57.4568549 +1    26     2     1
  H(HETATM   44 3H20 HET A   1)   1.10840249 +1  108.4481650 +1 -175.0471880 +1    26     2     1
  H(HETATM   45 1H21 HET A   1)   1.11157685 +1  110.0141371 +1  -76.0932962 +1    27     3     2
  H(HETATM   46 2H21 HET A   1)   1.10904722 +1  110.5939663 +1  161.8589217 +1    27     3     2
  H(HETATM   47 3H21 HET A   1)   1.10849650 +1  108.9432812 +1   42.4329308 +1    27     3     2
  H(HETATM   48 1H22 HET A   1)   1.10981581 +1  110.3734456 +1   58.7771913 +1    28     4     1
  H(HETATM   49 2H22 HET A   1)   1.11100967 +1  110.1734448 +1  -63.3342018 +1    28     4     1
  H(HETATM   50 3H22 HET A   1)   1.10806103 +1  108.8910107 +1  177.8154519 +1    28     4     1
  H(HETATM   51 1H23 HET A   1)   1.11128607 +1  109.9071677 +1   66.8955902 +1    29     5     4
  H(HETATM   52 2H23 HET A   1)   1.10886009 +1  110.8679758 +1  -56.0982726 +1    29     5     4
  H(HETATM   53 3H23 HET A   1)   1.10837085 +1  108.7414062 +1 -174.8295837 +1    29     5     4

 XPARAM 
  1  1    0.0016  1  2   -0.0022  1  3   -0.0000  2  1    5.5413  2  2    0.0045
  2  3    0.0001  3  1    2.8101  3  2    1.0411  3  3   -0.0000  4  1    9.1079
  4  2    1.3246  4  3    3.2401  5  1    2.8437  5  2    1.2870  5  3    3.1421
  6  1    4.0740  6  2    1.0932  6  3    3.0600  7  1    1.3984  7  2    2.1742
  7  3    0.0149  8  1    1.4628  8  2    2.0453  8  3    0.0031  9  1    1.4539
  9  2    2.1134  9  3    6.2526 10  1    1.4773 10  2    2.1632 10  3    3.1534
 11  1    1.4149 11  2    2.0549 11  3    0.0307 12  1    1.4223 12  2    2.0783
 12  3    3.1501 13  1    2.7203 13  2    1.0776 13  3    3.0600 14  1    1.4134
 14  2    2.0683 14  3    3.1169 15  1    3.6933 15  2    0.1949 15  3    6.2543
 16  1    1.3676 16  2    2.1471 16  3    0.0201 17  1    2.3889 17  2    1.0705
 17  3    6.2727 18  1    1.4302 18  2    2.2161 18  3    0.0179 19  1    1.4732
 19  2    1.9087 19  3    3.1540 20  1    1.4036 20  2    2.1332 20  3    3.1629
 21  1    1.3603 21  2    1.0423 21  3    6.2768 22  1    1.3932 22  2    2.1169
 22  3    3.1403 23  1    1.3637 23  2    0.2422 23  3    3.2656 24  1    1.3604
 24  2    0.9887 24  3    0.0496 25  1    1.3818 25  2    2.2040 25  3    0.0686
 26  1    1.3807 26  2    2.2349 26  3    5.6190 27  1    1.3805 27  2    2.9897
 27  3    2.4228 28  1    1.3821 28  2    1.9747 28  3    6.2757 29  1    1.3806
 29  2    1.2499 29  3    3.3139 30  1    1.0842 30  2    2.0757 30  3    6.2318
 31  1    1.0630 31  2    2.2001 31  3    3.1599 32  1    1.0860 32  2    2.0624
 32  3    3.1334 33  1    1.0474 33  2    2.1649 33  3    6.2682 34  1    1.1102
 34  2    1.9181 34  3    4.2402 35  1    1.1119 35  2    1.9970 35  3    6.2723
 36  1    1.1098 36  2    1.9161 36  3    2.0123 37  1    1.0858 37  2    2.0978
 37  3    3.1313 38  1    1.0786 38  2    2.0643 38  3    0.0335 39  1    1.1084
 39  2    1.8998 39  3    3.1117 40  1    1.1105 40  2    1.9248 40  3    1.0382
 41  1    1.1102 41  2    1.9251 41  3    5.1865 42  1    1.1039 42  2    1.9721
 42  3    1.1583 43  1    1.1109 43  2    1.9072 43  3    5.2804 44  1    1.1084
 44  2    1.8928 44  3    3.2280 45  1    1.1116 45  2    1.9201 45  3    4.9551
 46  1    1.1090 46  2    1.9302 46  3    2.8250 47  1    1.1085 47  2    1.9014
 47  3    0.7406 48  1    1.1098 48  2    1.9264 48  3    1.0259 49  1    1.1110
 49  2    1.9229 49  3    5.1778 50  1    1.1081 50  2    1.9005 50  3    3.1035
 51  1    1.1113 51  2    1.9182 51  3    1.1675 52  1    1.1089 52  2    1.9350
 52  3    5.3041 53  1    1.1084 53  2    1.8979 53  3    3.2318
 grad
       0.00001    0.00002   -0.00000   -7.43245    0.00000    0.00000  -20.65626   14.55838
       0.00000   65.46124  -92.12259   10.03333  -14.67092   36.95129   -0.36540   -6.15744
    -486.01933 -120.06522   53.54590 -172.08871    2.60578   88.45554   39.35266   -8.19913
      12.62506   56.03735  -11.03610    1.35778  113.93947    1.15853  -35.90482   13.86699
      -5.54995    6.47494  -51.40641   -0.44466  -19.45468   93.23450  129.29970   17.51313
      55.06665   -2.20802   23.05510  143.64294   -0.27792  -13.79329   49.48498   -0.93719
      30.39660   25.73014  -33.03549    1.15182   25.15714    0.48107    1.42951  -23.97080
       0.51169  -26.86982   35.28524    0.51748   -2.71060  -17.98126   -8.63720  -11.53446
     -20.29262    0.62563   -7.65115   57.20243   -1.88690   20.63615    0.97302    7.34490
     -19.87782   25.91898    0.39111  -20.25122   28.47735   -3.34745  -22.23713  -19.28856
       2.68515  -19.16591   25.07549    0.70369  -20.33012   29.88382   -1.68936  -10.81044
      -4.02576   -2.21679  -23.05846   22.85387   -0.14029   -4.40005   -8.86803   -0.53900
     -23.94002   13.84439    0.08893    0.52475   -2.23984    7.56547    0.96692    5.89392
       0.42132    0.02570   -2.25244   -7.82087   -4.29386   -0.56217    0.07221   -6.94209
      -2.70210   -0.03121    7.05359   15.73671   -0.06124    5.36257   -1.37563   -0.02568
       5.26533   -1.20820    0.08886    2.29313    4.17626    2.50942    5.41784   -2.16428
      -2.49230    6.22437   16.37558    0.41285    5.58102   -1.77149   -0.04115    4.94349
      -1.31828    0.60018    6.84530   15.62465   -0.38507    5.69921   -1.54669   -0.57812
       6.12493   -1.60410    0.46508    6.61859   15.32446    0.03620    6.17766   -1.97605
       2.20281    5.08865   -0.19301   -2.08513    6.49515   16.09215   -0.15327
 CYCLE:     3 TIME:   0.117 TIME LEFT:  2.00D  GRAD.:   633.639 HEAT:  65.20747

          HESSIAN HAS  0 NEGATIVE EIGENVALUE(S)
  MIN SEARCH, CORRECT HESSIAN, TRYING PURE NR STEP
 LAMBDA THAT MINIMIZES ALONG ALL MODES =        0.000000000
 PURE NR-STEP HAS LENGTH   0.83389
 LAMBDA THAT MINIMIZES ALONG ALL MODES =     -156.948303083
 P-RFO-STEP   HAS LENGTH   0.54986
 LAMBDA THAT MINIMIZES ALONG ALL MODES =   -49526.491073859
 QA/TRIM-STEP HAS LENGTH   0.00625

  HEAT OF FORMATION        63.325590493550408    
 PARAMETERS        0.002  -0.002  -0.000   5.541   0.005   0.000   2.811   1.041
  -0.000   9.107   1.324   3.240   2.844   1.287   3.142   4.074   1.097   3.061

   1.398   2.174   0.015   1.461   2.045   0.003   1.454   2.113   6.253   1.477

   2.164   3.153   1.416   2.055   0.031   1.422   2.078   3.150   2.721   1.076

   3.059   1.413   2.067   3.117   3.693   0.193   6.254   1.368   2.146   0.020

   2.388   1.071   6.273   1.430   2.216   0.018   1.473   1.909   3.154   1.404

   2.134   3.163   1.360   1.043   6.277   1.393   2.118   3.140   1.364   0.241

   3.266   1.360   0.988   0.049   1.382   2.204   0.068   1.381   2.235   5.619

   1.381   2.990   2.423   1.382   1.975   6.276   1.381   1.250   3.314   1.084

   2.076   6.232   1.063   2.200   3.160   1.086   2.063   3.133   1.048   2.165

   6.268   1.110   1.918   4.240   1.112   1.997   6.272   1.110   1.916   2.012

   1.086   2.098   3.131   1.079   2.064   0.034   1.108   1.900   3.112   1.110

   1.925   1.038   1.110   1.925   5.186   1.104   1.972   1.158   1.111   1.907

   5.280   1.108   1.893   3.228   1.111   1.920   4.955   1.109   1.930   2.825

   1.108   1.901   0.741   1.110   1.926   1.026   1.111   1.923   5.178   1.108

   1.900   3.103   1.111   1.918   1.167   1.109   1.935   5.304   1.108   1.898

   3.232
 GRADIENT          0.000   0.000  -0.000  14.594   0.000   0.000  -9.782  21.375
   0.000  33.546   9.475   5.990  -2.497   9.103   0.174  32.565 -75.548  42.463

  22.430 -39.099   4.800  35.266 -10.334  -1.720  -7.134 -16.644  -4.758  15.907

  26.979  -0.210 -23.061  -8.573  -3.536  -1.815   4.000  -1.266 -22.845  39.463

 -36.767  13.991  34.036  -1.604  20.430  53.297   0.031 -10.364  39.674  -0.849

  29.654  30.187 -32.083   4.769  23.399   0.023   2.974 -21.190   0.624 -18.567

   3.602  -0.198  -5.655 -12.884  -8.680 -13.111 -20.250   0.665   1.213  57.837

  -2.085  27.327  27.158   6.597 -20.309  24.977   0.399 -19.881  28.328  -3.302

 -21.902 -19.213   2.663 -18.863  24.363   0.672 -19.933  29.702  -1.719 -12.400

  -1.473   0.819 -22.670  22.958  -0.109  -4.890  -8.114  -0.540 -23.044  12.777

   0.293   0.549  -2.118   7.526   0.995   6.284   0.308   0.058  -2.130  -7.710

  -6.102   1.254  -0.105  -7.170  -2.148  -0.011   6.923  15.651  -0.061   5.292

  -1.312  -0.046   5.188  -1.146   0.110   2.315   4.210   2.497   5.405  -2.139

  -2.504   6.192  16.294   0.433   5.552  -1.736  -0.059   4.928  -1.286   0.613

   6.789  15.597  -0.383   5.631  -1.511  -0.628   6.053  -1.559   0.514   6.547

  15.298   0.037   6.140  -1.951   2.186   5.062  -0.150  -2.069   6.436  16.071

  -0.151
       HoF         ACTUAL,  PREDICTED ENERGY CHANGE, RATIO
    63.3255905    -1.8818806          -2.4229547    0.7766883
     STEPSIZE USED IS  0.00625
 CALCULATED STEP
     0.000183  0.000116  0.000029 -0.000149  0.000497  0.000064  0.000481 -0.000082
    -0.000009 -0.000636 -0.000687 -0.000023  0.000098  0.000513 -0.000041 -0.000141
     0.003668  0.000776 -0.000648 -0.000117 -0.000086 -0.001711 -0.000335  0.000047
    -0.000167 -0.000513  0.000103 -0.000305  0.001132 -0.000102  0.000753 -0.000033
     0.000025  0.000211 -0.000399 -0.000025  0.000491 -0.001405 -0.000816 -0.000374
    -0.000976 -0.000016 -0.000326 -0.002117  0.000042  0.000352 -0.000907 -0.000049
    -0.000521  0.000048  0.000663  0.000030 -0.000051 -0.000072 -0.000009  0.000797
    -0.000068  0.000282  0.000451 -0.000073  0.000138  0.000818  0.000162  0.000257
     0.000757 -0.000080  0.000194 -0.001091  0.000069 -0.000517 -0.000485 -0.000154
     0.000420 -0.000334 -0.000079  0.000393 -0.000129 -0.000005  0.000406  0.000683
    -0.000162  0.000387 -0.000021 -0.000074  0.000470 -0.000259  0.000009  0.000217
     0.000207 -0.000008  0.000462 -0.000372 -0.000019  0.000088  0.000273 -0.000008
     0.000448 -0.000109 -0.000024 -0.000004  0.000150 -0.000169 -0.000018  0.000014
    -0.000025  0.000009  0.000120  0.000139  0.000136  0.000057 -0.000020  0.000148
     0.000102 -0.000018 -0.000132 -0.000225 -0.000016 -0.000096  0.000090 -0.000017
    -0.000100  0.000143 -0.000019 -0.000036 -0.000020 -0.000068 -0.000104  0.000164
     0.000033 -0.000116 -0.000237 -0.000025 -0.000106  0.000151 -0.000016 -0.000091
     0.000113 -0.000029 -0.000125 -0.000255 -0.000009 -0.000102  0.000093 -0.000005
    -0.000117  0.000150 -0.000026 -0.000123 -0.000217 -0.000018 -0.000112  0.000104
    -0.000061 -0.000098  0.000124  0.000025 -0.000122 -0.000230 -0.000014
     NEW TRUST RADIUS =  0.00884
*REMARK   3 HET = Not identified; C 23 H 24 N O 5    =    53 atoms res:    1
 PM7 CHARGE=+1 EF NOXYZ PRNT=2 PDBOUT COMPFG GRAPHF
 2,3,7,8,10-pentamethoxy-5-methylbenzo[c]phenanthridin-5-ium

  O(HETATM    1  O1  HET A   1)   0.00182008 +1   -0.0021208 +1   -0.0000037 +1
  O(HETATM    2  O2  HET A   1)   5.54117656 +1    0.2837996 +1    0.0100008 +1     1     0     0
  O(HETATM    3  O3  HET A   1)   2.81055223 +1   59.6433601 +1   -0.0012938 +1     2     1     0
  O(HETATM    4  O4  HET A   1)   9.10725855 +1   75.8545135 +1 -174.3585379 +1     1     2     3
  O(HETATM    5  O5  HET A   1)   2.84384175 +1   73.7668704 +1 -179.9728475 +1     4     1     2
  N(HETATM    6  N   HET A   1)   4.07389713 +1   62.8434164 +1  175.3681221 +1     2     1     3
  C(HETATM    7  C1  HET A   1)   1.39772131 +1  124.5660108 +1    0.8483008 +1     6     2     1
  C(HETATM    8  C2  HET A   1)   1.46113412 +1  117.1673370 +1    0.1803764 +1     7     6     2
  C(HETATM    9  C3  HET A   1)   1.45372867 +1  121.0574067 +1   -1.7451950 +1     8     7     6
  C(HETATM   10  C4  HET A   1)   1.47702746 +1  124.0078139 +1 -179.3314643 +1     7     6     2
  C(HETATM   11  C5  HET A   1)   1.41565092 +1  117.7341435 +1    1.7587663 +1     9     8     7
  C(HETATM   12  C6  HET A   1)   1.42248473 +1  119.0533782 +1 -179.5144309 +1    10     7     6
  C(HETATM   13  C7  HET A   1)   2.72079998 +1   61.6636097 +1  175.2795476 +1     2     1     3
  C(HETATM   14  C8  HET A   1)   1.41300119 +1  118.4498913 +1  178.5850500 +1     8     7     6
  C(HETATM   15  C9  HET A   1)   3.69296600 +1   11.0429385 +1   -1.6499780 +1     3     1     2
  C(HETATM   16  C10 HET A   1)   1.36794761 +1  122.9701557 +1    1.1460689 +1    14     8     7
  C(HETATM   17  C11 HET A   1)   2.38840719 +1   61.3390376 +1   -0.5619615 +1     3     1     2
  C(HETATM   18  C12 HET A   1)   1.43027032 +1  126.9684618 +1    1.0229377 +1    10     7     6
  C(HETATM   19  C13 HET A   1)   1.47317616 +1  109.4036715 +1 -179.2957391 +1     6     2     1
  C(HETATM   20  C14 HET A   1)   1.40385861 +1  122.2496809 +1 -178.7819155 +1    12    10     7
  C(HETATM   21  C15 HET A   1)   1.36040403 +1   59.7663352 +1   -0.3592625 +1     3     2     1
  C(HETATM   22  C16 HET A   1)   1.39342632 +1  121.3339401 +1  179.9211270 +1    21     3     2
  C(HETATM   23  C17 HET A   1)   1.36388399 +1   13.8140089 +1 -172.8922990 +1     4     1     2
  C(HETATM   24  C18 HET A   1)   1.35984523 +1   56.6202224 +1    2.8307150 +1     5     4     1
  C(HETATM   25  C19 HET A   1)   1.38224176 +1  126.2603123 +1    3.9240723 +1     1     2     3
  C(HETATM   26  C20 HET A   1)   1.38113942 +1  128.0403600 +1  -38.0540949 +1     2     1     3
  C(HETATM   27  C21 HET A   1)   1.38089305 +1  171.3376810 +1  138.8059040 +1     3     2     1
  C(HETATM   28  C22 HET A   1)   1.38243754 +1  113.1431892 +1   -0.4350751 +1     4     1     2
  C(HETATM   29  C23 HET A   1)   1.38106629 +1   71.5973331 +1 -170.1267686 +1     5     4     1
  H(HETATM   30  H7  HET A   1)   1.08442774 +1  118.9380989 +1   -2.9468835 +1    13     6     2
  H(HETATM   31  H8  HET A   1)   1.06348243 +1  126.0325794 +1 -178.9523598 +1    14     8     7
  H(HETATM   32  H10 HET A   1)   1.08609914 +1  118.1844535 +1  179.5287838 +1    16    14     8
  H(HETATM   33  H12 HET A   1)   1.04783263 +1  124.0313822 +1   -0.8607140 +1    18    10     7
  H(HETATM   34 1H13 HET A   1)   1.11024520 +1  109.9066374 +1 -117.0662149 +1    19     6     2
  H(HETATM   35 2H13 HET A   1)   1.11189561 +1  114.4190787 +1   -0.6267434 +1    19     6     2
  H(HETATM   36 3H13 HET A   1)   1.10984717 +1  109.7925192 +1  115.3050886 +1    19     6     2
  H(HETATM   37  H14 HET A   1)   1.08589219 +1  120.1966904 +1  179.4109612 +1    20    12    10
  H(HETATM   38  H16 HET A   1)   1.07874710 +1  118.2837119 +1    1.9206891 +1    22    21     3
  H(HETATM   39 1H19 HET A   1)   1.10827933 +1  108.8371099 +1  178.2844381 +1    25     1     2
  H(HETATM   40 2H19 HET A   1)   1.11036215 +1  110.2884626 +1   59.4857496 +1    25     1     2
  H(HETATM   41 3H19 HET A   1)   1.11005408 +1  110.3099115 +1  -62.8362514 +1    25     1     2
  H(HETATM   42 1H20 HET A   1)   1.10388155 +1  112.9945036 +1   66.3621110 +1    26     2     1
  H(HETATM   43 2H20 HET A   1)   1.11083279 +1  109.2857730 +1  -57.4549374 +1    26     2     1
  H(HETATM   44 3H20 HET A   1)   1.10828630 +1  108.4346081 +1 -175.0486333 +1    26     2     1
  H(HETATM   45 1H21 HET A   1)   1.11147042 +1  110.0227771 +1  -76.0942275 +1    27     3     2
  H(HETATM   46 2H21 HET A   1)   1.10895664 +1  110.6004323 +1  161.8572444 +1    27     3     2
  H(HETATM   47 3H21 HET A   1)   1.10837187 +1  108.9286738 +1   42.4324104 +1    27     3     2
  H(HETATM   48 1H22 HET A   1)   1.10971362 +1  110.3787567 +1   58.7768778 +1    28     4     1
  H(HETATM   49 2H22 HET A   1)   1.11089241 +1  110.1820452 +1  -63.3357198 +1    28     4     1
  H(HETATM   50 3H22 HET A   1)   1.10793763 +1  108.8785890 +1  177.8144472 +1    28     4     1
  H(HETATM   51 1H23 HET A   1)   1.11117384 +1  109.9131418 +1   66.8920830 +1    29     5     4
  H(HETATM   52 2H23 HET A   1)   1.10876254 +1  110.8750990 +1  -56.0968675 +1    29     5     4
  H(HETATM   53 3H23 HET A   1)   1.10824925 +1  108.7282203 +1 -174.8303699 +1    29     5     4

 XPARAM 
  1  1    0.0018  1  2   -0.0021  1  3   -0.0000  2  1    5.5412  2  2    0.0050
  2  3    0.0002  3  1    2.8106  3  2    1.0410  3  3   -0.0000  4  1    9.1073
  4  2    1.3239  4  3    3.2401  5  1    2.8438  5  2    1.2875  5  3    3.1421
  6  1    4.0739  6  2    1.0968  6  3    3.0608  7  1    1.3977  7  2    2.1741
  7  3    0.0148  8  1    1.4611  8  2    2.0450  8  3    0.0031  9  1    1.4537
  9  2    2.1129  9  3    6.2527 10  1    1.4770 10  2    2.1643 10  3    3.1533
 11  1    1.4157 11  2    2.0548 11  3    0.0307 12  1    1.4225 12  2    2.0779
 12  3    3.1501 13  1    2.7208 13  2    1.0762 13  3    3.0592 14  1    1.4130
 14  2    2.0673 14  3    3.1169 15  1    3.6930 15  2    0.1927 15  3    6.2544
 16  1    1.3679 16  2    2.1462 16  3    0.0200 17  1    2.3884 17  2    1.0706
 17  3    6.2734 18  1    1.4303 18  2    2.2160 18  3    0.0179 19  1    1.4732
 19  2    1.9095 19  3    3.1539 20  1    1.4039 20  2    2.1337 20  3    3.1629
 21  1    1.3604 21  2    1.0431 21  3    6.2769 22  1    1.3934 22  2    2.1177
 22  3    3.1402 23  1    1.3639 23  2    0.2411 23  3    3.2656 24  1    1.3598
 24  2    0.9882 24  3    0.0494 25  1    1.3822 25  2    2.2037 25  3    0.0685
 26  1    1.3811 26  2    2.2347 26  3    5.6190 27  1    1.3809 27  2    2.9904
 27  3    2.4226 28  1    1.3824 28  2    1.9747 28  3    6.2756 29  1    1.3811
 29  2    1.2496 29  3    3.3139 30  1    1.0844 30  2    2.0759 30  3    6.2318
 31  1    1.0635 31  2    2.1997 31  3    3.1599 32  1    1.0861 32  2    2.0627
 32  3    3.1334 33  1    1.0478 33  2    2.1648 33  3    6.2682 34  1    1.1102
 34  2    1.9182 34  3    4.2400 35  1    1.1119 35  2    1.9970 35  3    6.2722
 36  1    1.1098 36  2    1.9162 36  3    2.0125 37  1    1.0859 37  2    2.0978
 37  3    3.1313 38  1    1.0787 38  2    2.0644 38  3    0.0335 39  1    1.1083
 39  2    1.8996 39  3    3.1117 40  1    1.1104 40  2    1.9249 40  3    1.0382
 41  1    1.1101 41  2    1.9253 41  3    5.1865 42  1    1.1039 42  2    1.9721
 42  3    1.1582 43  1    1.1108 43  2    1.9074 43  3    5.2804 44  1    1.1083
 44  2    1.8925 44  3    3.2280 45  1    1.1115 45  2    1.9203 45  3    4.9551
 46  1    1.1090 46  2    1.9303 46  3    2.8249 47  1    1.1084 47  2    1.9012
 47  3    0.7406 48  1    1.1097 48  2    1.9265 48  3    1.0259 49  1    1.1109
 49  2    1.9230 49  3    5.1778 50  1    1.1079 50  2    1.9003 50  3    3.1034
 51  1    1.1112 51  2    1.9183 51  3    1.1675 52  1    1.1088 52  2    1.9351
 52  3    5.3041 53  1    1.1082 53  2    1.8977 53  3    3.2318
 grad
       0.00001    0.00002   -0.00000   14.59413    0.00000    0.00000   -9.78168   21.37506
       0.00000   33.54601    9.47536    5.98964   -2.49731    9.10266    0.17428   32.56549
     -75.54801   42.46267   22.42962  -39.09883    4.80035   35.26648  -10.33404   -1.72050
      -7.13432  -16.64357   -4.75795   15.90652   26.97867   -0.20972  -23.06075   -8.57255
      -3.53615   -1.81543    4.00016   -1.26566  -22.84455   39.46324  -36.76674   13.99097
      34.03615   -1.60377   20.42962   53.29716    0.03141  -10.36430   39.67390   -0.84914
      29.65364   30.18683  -32.08320    4.76936   23.39895    0.02272    2.97419  -21.18981
       0.62360  -18.56672    3.60154   -0.19793   -5.65455  -12.88432   -8.67964  -13.11077
     -20.25003    0.66458    1.21320   57.83662   -2.08477   27.32685   27.15838    6.59660
     -20.30901   24.97738    0.39897  -19.88057   28.32772   -3.30198  -21.90249  -19.21290
       2.66341  -18.86311   24.36291    0.67238  -19.93347   29.70210   -1.71884  -12.39963
      -1.47331    0.81929  -22.67010   22.95781   -0.10895   -4.89041   -8.11438   -0.53979
     -23.04418   12.77720    0.29259    0.54896   -2.11795    7.52567    0.99517    6.28380
       0.30806    0.05806   -2.13024   -7.70963   -6.10216    1.25418   -0.10463   -7.16951
      -2.14821   -0.01134    6.92324   15.65123   -0.06138    5.29222   -1.31168   -0.04574
       5.18808   -1.14592    0.10997    2.31467    4.21001    2.49708    5.40467   -2.13929
      -2.50362    6.19154   16.29400    0.43295    5.55235   -1.73572   -0.05915    4.92785
      -1.28557    0.61331    6.78916   15.59712   -0.38272    5.63128   -1.51142   -0.62811
[...]




  ATOM               CHEMICAL                 BOND LENGTH      BOND ANGLE     TWIST ANGLE 
 NUMBER               SYMBOL                  (ANGSTROMS)      (DEGREES)       (DEGREES) 
   (I)                                           NA:I           NB:NA:I       NC:NB:NA:I       NA    NB    NC 
     1       O(HETATM    1  O1  HET A   1)    0.03600550  *    0.0538767  *    0.0171901  *
     2       O(HETATM    2  O2  HET A   1)    5.53369205  *    2.9530690  *    0.3652139  *     1     0     0
     3       O(HETATM    3  O3  HET A   1)    2.79063161  *   60.7518025  *    0.0684868  *     2     1     0
     4       O(HETATM    4  O4  HET A   1)    9.00517243  *   76.8953485  * -175.4734583  *     1     2     3
     5       O(HETATM    5  O5  HET A   1)    2.84320999  *   72.7188866  * -179.6424124  *     4     1     2
     6       N(HETATM    6  N   HET A   1)    4.02537869  *   62.1523763  *  176.2003493  *     2     1     3
     7       C(HETATM    7  C1  HET A   1)    1.41323710  *  125.5611313  *    0.3296489  *     6     2     1
     8       C(HETATM    8  C2  HET A   1)    1.42746291  *  115.4145863  *    0.3927366  *     7     6     2
     9       C(HETATM    9  C3  HET A   1)    1.45813994  *  123.5770312  *   -1.1385399  *     8     7     6
    10       C(HETATM   10  C4  HET A   1)    1.45370772  *  124.6028460  * -179.6304047  *     7     6     2
    11       C(HETATM   11  C5  HET A   1)    1.43179167  *  116.8102047  *    1.9691602  *     9     8     7
    12       C(HETATM   12  C6  HET A   1)    1.41637257  *  118.7820692  * -179.5113159  *    10     7     6
    13       C(HETATM   13  C7  HET A   1)    2.70177243  *   60.6996516  *  176.1395060  *     2     1     3
    14       C(HETATM   14  C8  HET A   1)    1.42434246  *  118.8041459  *  178.6134816  *     8     7     6
    15       C(HETATM   15  C9  HET A   1)    3.70431505  *   10.1988667  *   -1.3327498  *     3     1     2
    16       C(HETATM   16  C10 HET A   1)    1.36908199  *  121.2689800  *    0.9781296  *    14     8     7
    17       C(HETATM   17  C11 HET A   1)    2.33316648  *   59.8544822  *    1.0636831  *     3     1     2
    18       C(HETATM   18  C12 HET A   1)    1.43682087  *  127.4627877  *    0.6297220  *    10     7     6
    19       C(HETATM   19  C13 HET A   1)    1.47161119  *  112.5371388  * -179.5827307  *     6     2     1
    20       C(HETATM   20  C14 HET A   1)    1.42192665  *  123.7011304  * -178.9320688  *    12    10     7
    21       C(HETATM   21  C15 HET A   1)    1.35125856  *   62.6495360  *   -0.7805412  *     3     2     1
    22       C(HETATM   22  C16 HET A   1)    1.39575279  *  125.9399261  *  179.0422744  *    21     3     2
    23       C(HETATM   23  C17 HET A   1)    1.35969773  *   10.2548023  * -172.1021413  *     4     1     2
    24       C(HETATM   24  C18 HET A   1)    1.35340761  *   54.6116678  *    1.1710549  *     5     4     1
    25       C(HETATM   25  C19 HET A   1)    1.42739113  *  122.0770468  *    3.3795300  *     1     2     3
    26       C(HETATM   26  C20 HET A   1)    1.42777768  *  124.1994753  *  -37.3172101  *     2     1     3
    27       C(HETATM   27  C21 HET A   1)    1.43407457  *  179.9959545  *  137.4502941  *     3     2     1
    28       C(HETATM   28  C22 HET A   1)    1.42455238  *  111.0785010  *   -0.8485175  *     4     1     2
    29       C(HETATM   29  C23 HET A   1)    1.42529257  *   66.4974066  * -169.6336564  *     5     4     1
    30       H(HETATM   30  H7  HET A   1)    1.11847021  *  119.7941806  *   -2.9339182  *    13     6     2
    31       H(HETATM   31  H8  HET A   1)    1.09984282  *  121.9473836  * -178.9692544  *    14     8     7
    32       H(HETATM   32  H10 HET A   1)    1.10030555  *  120.4118477  *  179.6538277  *    16    14     8
    33       H(HETATM   33  H12 HET A   1)    1.08748862  *  122.8807176  *   -1.0455337  *    18    10     7
    34       H(HETATM   34 1H13 HET A   1)    1.11432360  *  111.1560808  * -119.0936181  *    19     6     2
    35       H(HETATM   35 2H13 HET A   1)    1.11319048  *  113.4147045  *   -0.8136326  *    19     6     2
    36       H(HETATM   36 3H13 HET A   1)    1.11471068  *  110.9085519  *  117.3173262  *    19     6     2
    37       H(HETATM   37  H14 HET A   1)    1.09731183  *  120.4131146  *  179.4017320  *    20    12    10
    38       H(HETATM   38  H16 HET A   1)    1.09520132  *  119.0923959  *    1.6000699  *    22    21     3
    39       H(HETATM   39 1H19 HET A   1)    1.09918340  *  104.4107128  *  178.2439173  *    25     1     2
    40       H(HETATM   40 2H19 HET A   1)    1.09959305  *  110.8860703  *   59.9304823  *    25     1     2
    41       H(HETATM   41 3H19 HET A   1)    1.09992888  *  111.2709032  *  -63.4234298  *    25     1     2
    42       H(HETATM   42 1H20 HET A   1)    1.09955705  *  111.9772179  *   66.0973039  *    26     2     1
    43       H(HETATM   43 2H20 HET A   1)    1.09897726  *  110.6977541  *  -56.8811488  *    26     2     1
    44       H(HETATM   44 3H20 HET A   1)    1.09877264  *  104.1263210  * -175.3585115  *    26     2     1
    45       H(HETATM   45 1H21 HET A   1)    1.09965583  *  111.0439376  *  -75.7103669  *    27     3     2
    46       H(HETATM   46 2H21 HET A   1)    1.09867046  *  111.2862660  *  161.1244773  *    27     3     2
    47       H(HETATM   47 3H21 HET A   1)    1.09918188  *  104.4468931  *   42.4922993  *    27     3     2
    48       H(HETATM   48 1H22 HET A   1)    1.09813195  *  110.9988625  *   59.3334255  *    28     4     1
    49       H(HETATM   49 2H22 HET A   1)    1.09866396  *  111.1796161  *  -63.9217132  *    28     4     1
    50       H(HETATM   50 3H22 HET A   1)    1.09970169  *  104.6537526  *  177.7456318  *    28     4     1
    51       H(HETATM   51 1H23 HET A   1)    1.09874193  *  110.7217440  *   66.4848160  *    29     5     4
    52       H(HETATM   52 2H23 HET A   1)    1.09949835  *  111.4438600  *  -55.9805524  *    29     5     4
    53       H(HETATM   53 3H23 HET A   1)    1.09928920  *  104.4329763  * -174.8068722  *    29     5     4

                             CARTESIAN COORDINATES

   1    O        0.036005501     0.053876661     0.017190127
   2    O        5.569697555     0.053876661     0.017190127
   3    O        4.206212274     2.488734492     0.017190127
   4    O        2.077751655    -8.689422423     0.709378173
   5    O       -0.757856636    -8.484326890     0.676144613
   6    N        3.689355677    -3.497511450     0.253051317
   7    C        2.288922955    -3.687226108     0.259021922
   8    C        1.508863701    -2.495548599     0.163824008
   9    C        2.085207956    -1.158185178     0.089942628
  10    C        1.631413409    -4.980345230     0.352778395
  11    C        3.514230762    -1.070872435     0.072689364
  12    C        0.215940005    -5.028385965     0.337338994
  13    C        4.247483212    -2.296901821     0.175821784
  14    C        0.089083636    -2.605299900     0.133317479
  15    C        1.388425756     0.084197858     0.032445687
  16    C       -0.531413376    -3.823073412     0.213296406
  17    C        4.211487444     0.155874623    -0.020264232
  18    C        2.253124081    -6.270690179     0.466532373
  19    C        4.627665601    -4.627993183     0.338051496
  20    C       -0.533862834    -6.231763033     0.444831913
  21    C        3.462441280     1.360710963     0.000840219
  22    C        2.068066484     1.298733876     0.002742913
  23    C        1.540870031    -7.447171189     0.577666681
  24    C        0.104296783    -7.445684472     0.578034647
  25    C       -0.722023650     1.261251407    -0.054108279
  26    C        6.372216843     0.993031955    -0.698700392
  27    C        3.505597428     3.740017313     0.017258599
  28    C        3.488388768    -8.888007994     0.705353710
  29    C       -0.286042366    -9.785589675     1.016093674
  30    H        5.361746561    -2.200402672     0.184805446
  31    H       -0.561067022    -1.722693311     0.044076486
  32    H       -1.629450063    -3.891040435     0.194107574
  33    H        3.331937653    -6.407307457     0.477868237
  34    H        4.500683633    -5.321782639    -0.524647089
  35    H        5.696647809    -4.318775684     0.308817400
  36    H        4.507233874    -5.173271588     1.302804090
  37    H       -1.630826264    -6.205383047     0.436549762
  38    H        1.493575574     2.231102113    -0.008008322
  39    H       -1.768945854     0.926600632    -0.067027424
  40    H       -0.494042969     1.813319178    -0.977336779
  41    H       -0.545364130     1.895922152     0.826702715
  42    H        6.261799426     2.013514349    -0.304429698
  43    H        6.125963100     0.977633997    -1.769621968
  44    H        7.401354552     0.642401656    -0.539844190
  45    H        2.888710955     3.847114792     0.921263109
  46    H        2.883482859     3.848846947    -0.881744373
  47    H        4.300373938     4.499313003     0.018338175
  48    H        3.963295139    -8.354326033     1.539344889
  49    H        3.930634666    -8.574624511    -0.250298872
  50    H        3.617039634    -9.972435487     0.835006212
  51    H        0.236266383    -9.769532849     1.982618159
  52    H        0.381239300   -10.186740072     0.239749576
  53    H       -1.196450326   -10.397866600     1.084730869


           Empirical Formula: C23 H24 N O5  =    53 atoms



      MOLECULAR POINT GROUP   :   C1  


                  EIGENVALUES  
 -41.45300 -34.22470 -33.86822 -33.67670 -33.35680 -33.25307 -32.82093 -32.75400
 -31.98045 -30.64303 -29.88632 -29.30538 -28.97171 -28.24180 -28.05321 -27.70326
 -27.50574 -27.06956 -26.62775 -26.30039 -25.86806 -24.90866 -24.63168 -23.76736
 -23.35010 -22.18006 -21.76524 -21.39185 -20.70638 -20.33762 -20.21984 -20.05049
 -20.00181 -19.74400 -19.55485 -19.04302 -18.94087 -18.70794 -18.56632 -18.51729
 -18.22566 -18.13561 -17.83717 -17.78872 -17.75269 -17.50842 -17.46337 -17.35300
 -17.22581 -17.06760 -16.75121 -16.69867 -16.57434 -16.40512 -16.05968 -16.01302
 -15.71128 -15.68890 -15.56114 -15.46445 -15.27674 -15.13364 -15.06296 -14.88173
 -14.54661 -14.51216 -14.41614 -14.25099 -13.95107 -13.44649 -13.34072 -12.71441
 -11.73634 -11.42295 -10.84628  -4.62916  -3.98663  -3.00739  -2.65112  -2.51778
  -2.37962  -2.04029  -1.54157  -1.42200  -1.27733  -1.17300  -0.94262  -0.65687
  -0.51931  -0.36084  -0.08088   0.11672   0.39218   0.55666   0.73808   0.79363
   0.86048   1.00822   1.10647   1.22178   1.28628   1.40598   1.41469   1.49443
   1.58744   1.62320   1.68366   1.75449   1.78789   1.86500   1.90302   1.96911
   2.03766   2.11069   2.13534   2.33139   2.38158   2.62744   2.63365   2.65619
   2.68618   2.69063   2.70695   2.75367   2.80747   2.86917   2.97044   3.00177
   3.05679   3.09192   3.22167   3.32810   3.39219   3.40692   3.45308   3.47822
   3.58576   3.65364   3.69080   4.06103


              NET ATOMIC CHARGES AND DIPOLE CONTRIBUTIONS

  ATOM NO.                 TYPE                        CHARGE      No. of ELECS.   s-Pop       p-Pop       
    1          O(HETATM    1  O1  HET A   1)          -0.309370        6.3094     1.85914     4.45023
    2          O(HETATM    2  O2  HET A   1)          -0.326316        6.3263     1.86188     4.46443
    3          O(HETATM    3  O3  HET A   1)          -0.272942        6.2729     1.86888     4.40406
    4          O(HETATM    4  O4  HET A   1)          -0.306179        6.3062     1.86353     4.44264
    5          O(HETATM    5  O5  HET A   1)          -0.274503        6.2745     1.86350     4.41100
    6          N(HETATM    6  N   HET A   1)          -0.031392        5.0314     1.49732     3.53408
    7          C(HETATM    7  C1  HET A   1)           0.022836        3.9772     1.06049     2.91667
    8          C(HETATM    8  C2  HET A   1)           0.066862        3.9331     1.07198     2.86116
    9          C(HETATM    9  C3  HET A   1)          -0.104240        4.1042     1.05985     3.04439
   10          C(HETATM   10  C4  HET A   1)           0.007996        3.9920     1.05410     2.93791
   11          C(HETATM   11  C5  HET A   1)          -0.080308        4.0803     1.05806     3.02225
   12          C(HETATM   12  C6  HET A   1)          -0.000018        4.0000     1.06010     2.93992
   13          C(HETATM   13  C7  HET A   1)           0.056429        3.9436     1.10514     2.83843
   14          C(HETATM   14  C8  HET A   1)          -0.184337        4.1843     1.08713     3.09721
   15          C(HETATM   15  C9  HET A   1)           0.292179        3.7078     1.08174     2.62608
   16          C(HETATM   16  C10 HET A   1)          -0.074984        4.0750     1.09786     2.97713
   17          C(HETATM   17  C11 HET A   1)           0.114148        3.8859     1.07103     2.81482
   18          C(HETATM   18  C12 HET A   1)          -0.322004        4.3220     1.07066     3.25134
   19          C(HETATM   19  C13 HET A   1)          -0.307957        4.3080     1.07446     3.23350
   20          C(HETATM   20  C14 HET A   1)          -0.225786        4.2258     1.08056     3.14523
   21          C(HETATM   21  C15 HET A   1)           0.223510        3.7765     1.08620     2.69029
   22          C(HETATM   22  C16 HET A   1)          -0.360575        4.3606     1.07525     3.28533
   23          C(HETATM   23  C17 HET A   1)           0.198150        3.8019     1.09186     2.70999
   24          C(HETATM   24  C18 HET A   1)           0.196707        3.8033     1.08527     2.71802
   25          C(HETATM   25  C19 HET A   1)          -0.191708        4.1917     1.09096     3.10075
   26          C(HETATM   26  C20 HET A   1)          -0.177958        4.1780     1.09052     3.08744
   27          C(HETATM   27  C21 HET A   1)          -0.210959        4.2110     1.09143     3.11953
   28          C(HETATM   28  C22 HET A   1)          -0.198571        4.1986     1.08834     3.11023
   29          C(HETATM   29  C23 HET A   1)          -0.199078        4.1991     1.09080     3.10827
   30          H(HETATM   30  H7  HET A   1)           0.220122        0.7799     0.77988
   31          H(HETATM   31  H8  HET A   1)           0.197712        0.8023     0.80229
   32          H(HETATM   32  H10 HET A   1)           0.178530        0.8215     0.82147
   33          H(HETATM   33  H12 HET A   1)           0.163412        0.8366     0.83659
   34          H(HETATM   34 1H13 HET A   1)           0.194618        0.8054     0.80538
   35          H(HETATM   35 2H13 HET A   1)           0.181994        0.8180     0.81801
   36          H(HETATM   36 3H13 HET A   1)           0.194848        0.8052     0.80515
   37          H(HETATM   37  H14 HET A   1)           0.197005        0.8030     0.80299
   38          H(HETATM   38  H16 HET A   1)           0.194963        0.8050     0.80504
   39          H(HETATM   39 1H19 HET A   1)           0.167877        0.8321     0.83212
   40          H(HETATM   40 2H19 HET A   1)           0.142420        0.8576     0.85758
   41          H(HETATM   41 3H19 HET A   1)           0.143038        0.8570     0.85696
   42          H(HETATM   42 1H20 HET A   1)           0.153969        0.8460     0.84603
   43          H(HETATM   43 2H20 HET A   1)           0.138847        0.8612     0.86115
   44          H(HETATM   44 3H20 HET A   1)           0.159140        0.8409     0.84086
   45          H(HETATM   45 1H21 HET A   1)           0.145258        0.8547     0.85474
   46          H(HETATM   46 2H21 HET A   1)           0.142228        0.8578     0.85777
   47          H(HETATM   47 3H21 HET A   1)           0.170568        0.8294     0.82943
   48          H(HETATM   48 1H22 HET A   1)           0.133345        0.8667     0.86665
   49          H(HETATM   49 2H22 HET A   1)           0.135377        0.8646     0.86462
   50          H(HETATM   50 3H22 HET A   1)           0.170661        0.8293     0.82934
   51          H(HETATM   51 1H23 HET A   1)           0.142115        0.8579     0.85788
   52          H(HETATM   52 2H23 HET A   1)           0.146058        0.8539     0.85394
   53          H(HETATM   53 3H23 HET A   1)           0.166259        0.8337     0.83374
 DIPOLE           X         Y         Z       TOTAL
 POINT-CHG.     4.134     2.730    -0.751     5.011
 HYBRID         0.667    -0.414     0.130     0.796
 SUM            4.801     2.316    -0.622     5.366


          ATOMIC ORBITAL ELECTRON POPULATIONS

                   Atom                  s        px        py        pz   
   O(HETATM    1  O1  HET A   1)   1.85914   1.22340   1.36954   1.85729
   O(HETATM    2  O2  HET A   1)   1.86188   1.19463   1.56609   1.70372
   O(HETATM    3  O3  HET A   1)   1.86888   1.34782   1.19724   1.85900
   O(HETATM    4  O4  HET A   1)   1.86353   1.27948   1.29791   1.86526
   O(HETATM    5  O5  HET A   1)   1.86350   1.34796   1.23163   1.83142
   N(HETATM    6  N   HET A   1)   1.49732   1.11225   1.10411   1.31772
   C(HETATM    7  C1  HET A   1)   1.06049   0.77916   1.00005   1.13746
   C(HETATM    8  C2  HET A   1)   1.07198   0.99220   0.92958   0.93938
   C(HETATM    9  C3  HET A   1)   1.05985   0.96112   0.97389   1.10938
   C(HETATM   10  C4  HET A   1)   1.05410   0.98089   0.92707   1.02995
   C(HETATM   11  C5  HET A   1)   1.05806   0.97707   0.96384   1.08134
   C(HETATM   12  C6  HET A   1)   1.06010   0.95586   0.98636   0.99770
   C(HETATM   13  C7  HET A   1)   1.10514   1.07922   0.86139   0.89781
   C(HETATM   14  C8  HET A   1)   1.08713   0.98661   1.08081   1.02979
   C(HETATM   15  C9  HET A   1)   1.08174   0.80526   0.94170   0.87912
   C(HETATM   16  C10 HET A   1)   1.09786   1.08998   0.96922   0.91792
   C(HETATM   17  C11 HET A   1)   1.07103   0.82621   0.94004   1.04857
   C(HETATM   18  C12 HET A   1)   1.07066   1.09937   0.97774   1.17423
   C(HETATM   19  C13 HET A   1)   1.07446   1.04005   0.99356   1.19989
   C(HETATM   20  C14 HET A   1)   1.08056   1.10349   0.95550   1.08624
   C(HETATM   21  C15 HET A   1)   1.08620   0.92680   0.85417   0.90932
   C(HETATM   22  C16 HET A   1)   1.07525   1.02011   1.08403   1.18119
   C(HETATM   23  C17 HET A   1)   1.09186   0.92996   0.85047   0.92956
   C(HETATM   24  C18 HET A   1)   1.08527   0.89482   0.88495   0.93825
   C(HETATM   25  C19 HET A   1)   1.09096   1.02692   0.92195   1.15188
   C(HETATM   26  C20 HET A   1)   1.09052   0.99891   1.02454   1.06398
   C(HETATM   27  C21 HET A   1)   1.09143   1.10981   0.85401   1.15571
   C(HETATM   28  C22 HET A   1)   1.08834   0.80959   1.15517   1.14548
   C(HETATM   29  C23 HET A   1)   1.09080   1.14217   0.82658   1.13953
   H(HETATM   30  H7  HET A   1)   0.77988
   H(HETATM   31  H8  HET A   1)   0.80229
   H(HETATM   32  H10 HET A   1)   0.82147
   H(HETATM   33  H12 HET A   1)   0.83659
   H(HETATM   34 1H13 HET A   1)   0.80538
   H(HETATM   35 2H13 HET A   1)   0.81801
   H(HETATM   36 3H13 HET A   1)   0.80515
   H(HETATM   37  H14 HET A   1)   0.80299
   H(HETATM   38  H16 HET A   1)   0.80504
   H(HETATM   39 1H19 HET A   1)   0.83212
   H(HETATM   40 2H19 HET A   1)   0.85758
   H(HETATM   41 3H19 HET A   1)   0.85696
   H(HETATM   42 1H20 HET A   1)   0.84603
   H(HETATM   43 2H20 HET A   1)   0.86115
   H(HETATM   44 3H20 HET A   1)   0.84086
   H(HETATM   45 1H21 HET A   1)   0.85474
   H(HETATM   46 2H21 HET A   1)   0.85777
   H(HETATM   47 3H21 HET A   1)   0.82943
   H(HETATM   48 1H22 HET A   1)   0.86665
   H(HETATM   49 2H22 HET A   1)   0.86462
   H(HETATM   50 3H22 HET A   1)   0.82934
   H(HETATM   51 1H23 HET A   1)   0.85788
   H(HETATM   52 2H23 HET A   1)   0.85394
   H(HETATM   53 3H23 HET A   1)   0.83374

           DATA FOR GRAPH WRITTEN TO DISK

 **********************
 *                    *
 * JOB ENDED NORMALLY *
 *                    *
 **********************



 TOTAL JOB TIME:             2.21 SECONDS

 == MOPAC DONE ==
