 *******************************************************************************
 **                                                                           **
 **                              MOPAC v22.0.6                                **
 **                                                                           **
 *******************************************************************************
 **          Digital Object Identifier (DOI): 10.5281/zenodo.6511958          **
 **    Visit the DOI location for information on how to cite this program.    **
 *******************************************************************************

                              PM7 CALCULATION RESULTS

 *******************************************************************************
 *  CALCULATION DONE:                                Sun Oct  5 21:09:00 2025  *
 *  PM7        - The PM7 Hamiltonian to be used
 *  PDBOUT     - PRINT GEOMETRY IN PDB FORMAT
 *  RESIDUES   - DETERMINE THE SEQUENCE OF RESIDUES
 *
 *
 *
 *                 CHARGE ON SYSTEM = +1
 *
 *
 *
 *  EF         - USE EF ROUTINE FOR MINIMUM SEARCH
 *  T=         - A TIME OF 172800.0 SECONDS REQUESTED
 *  DUMP=N     - RESTART FILE WRITTEN EVERY 7200.0 SECONDS REQUESTED
 *  NOXYZ      - CARTESIAN COORDINATES NOT TO BE PRINTED
 *  PRNT       - EXTRA PRINTING IN EF ROUTINE
 *  GRAPH      - GENERATE FILE FOR GRAPHICS
 *  COMPFG     - PRINT HEAT OF FORMATION CALC'D IN COMPFG
 *******************************************************************************
PM7 CHARGE=+1 EF NOXYZ PRNT=2 PDBOUT COMPFG GRAPHF


  ATOM    CHEMICAL      BOND LENGTH      BOND ANGLE     TWIST ANGLE 
 NUMBER    SYMBOL       (ANGSTROMS)      (DEGREES)       (DEGREES) 
   (I)                     NA:I           NB:NA:I       NC:NB:NA:I       NA    NB    NC 
     1       O          0.00000000  *    0.0000000  *    0.0000000  *     0     0     0
     2       O          4.74873900  *    0.0000000  *    0.0000000  *     1     0     0
     3       N          5.05895800  *   88.5558990  *    0.0000000  *     1     2     0
     4       N          2.25219600  *   55.3219000  *   -5.0417560  *     2     1     3
     5       C          2.37816200  *  170.0737240  *  123.0683270  *     4     2     1
     6       C          1.46241200  *  146.2834190  *    8.3681780  *     4     2     1
     7       C          1.51688800  *   76.4384940  *  -37.0936910  *     3     1     2
     8       C          1.54474400  *  105.5755590  *   42.7195220  *     6     4     2
     9       C          1.54894400  *  113.0414680  *  156.4352950  *     8     6     4
    10       C          1.54240600  *  114.7826970  *  -62.6867850  *     7     3     1
    11       C          1.54072100  *  112.4003510  *  137.4563320  *     5     4     2
    12       C          1.50157700  *   65.5570210  *   33.3560950  *     5     4     2
    13       C          1.51426700  *   83.2143380  *   70.6711500  *     3     1     2
    14       C          1.45706000  *   34.6662820  *  -73.9136590  *     1     2     3
    15       C          1.52893000  *  113.1046990  *   60.7472560  *     9     8     6
    16       C          1.51607200  *   54.6919680  * -166.6338410  *     3     1     2
    17       C          1.43978400  *   96.9573360  *  168.5126740  *     4     2     1
    18       C          1.56505800  *  105.8328050  *  -13.3122890  *    14     1     2
    19       C          1.21525600  *   24.5829950  *  -11.1559690  *     2     1     3
    20       C          1.32517000  *  122.0887810  *   63.5345360  *    15     9     8
    21       C          1.44141400  *  120.8315880  *  167.7155690  *    12     5     4
    22       C          1.44458200  *  152.7791080  *  -60.4147480  *     1     2     3
    23       C          1.44158400  *  140.2380750  *   12.7930420  *    17     4     2
    24       C          1.39132100  *  119.7753580  * -155.6138310  *    21    12     5
    25       C          1.39305600  *  120.8124910  *   -0.7257080  *    24    21    12
    26       H          1.09460000  *  110.4495030  *  -75.6784630  *     6     4     2
    27       H          1.09288900  *   97.8373200  *  179.6055080  *     7     3     1
    28       H          1.09535900  *  107.3816680  *   41.7080600  *     8     6     4
    29       H          1.09293200  *  108.6930400  * -177.4054780  *     9     8     6
    30       H          1.09288600  *  110.2880920  *  -55.9905710  *    10     7     3
    31       H          1.09302900  *  110.5581930  * -174.0957880  *    10     7     3
    32       H          1.09298400  *  113.0652310  *    5.5180590  *    11     5     4
    33       H          1.09269800  *  110.8067880  * -116.7243050  *    11     5     4
    34       H          1.09297700  *  116.5438430  *  152.0122960  *    13     3     1
    35       H          1.09409500  *  105.7283480  *   32.1573580  *    13     3     1
    36       H          1.09353800  *  108.1764670  * -130.0551500  *    14     1     2
    37       H          1.09358200  *  113.4957700  * -109.9142800  *    16     3     1
    38       H          1.09329200  *   95.6855250  *  137.3410720  *    16     3     1
    39       H          1.09311800  *  109.5338070  *   15.1439460  *    18    14     1
    40       H          1.09250900  *  108.7330330  * -100.9390760  *    18    14     1
    41       H          1.08763200  *  120.5882220  * -178.9698470  *    20    15     9
    42       H          1.08662600  *  121.1452150  *   23.9223250  *    21    12     5
    43       H          1.09372900  *  110.4800860  *  -42.5435520  *    22     1     2
    44       H          1.09332300  *  108.2564340  * -162.0212750  *    22     1     2
    45       H          1.08502400  *  121.0844200  *   -2.8560130  *    23    17     4
    46       H          1.08721700  *  119.6060910  *  179.2258020  *    24    21    12
    47       H          1.08711200  *  120.1358810  *  179.8391030  *    25    24    21
    48       H          1.03298200  *  163.3322900  * -149.6131110  *     3     1     2


 General Reference for PM7:
 "Optimization of Parameters for Semiempirical Methods VI: More Modifications to the 
 NDDO Approximations and Re-optimization of Parameters", J. J. P. Stewart, J. Mol. Mod., 1:32, 19 (2013)
 https://link.springer.com/article/10.1007/s00894-012-1667-x

           Empirical Formula: C21 H23 N2 O2  =    48 atoms



      MOLECULAR POINT GROUP   :   C1  


      RHF CALCULATION, NO. OF DOUBLY OCCUPIED LEVELS = 64


          Geometry optimization using EF

  HEAT OF FORMATION        151.47261400583375    
 PARAMETERS        0.000   0.000   0.000   4.749   0.000   0.000   5.059   1.546
   0.000   2.252   0.966   6.195   2.378   2.968   2.148   1.462   2.553   0.146

   1.517   1.334   5.636   1.545   1.843   0.746   1.549   1.973   2.730   1.542

   2.003   5.189   1.541   1.962   2.399   1.502   1.144   0.582   1.514   1.452

   1.233   1.457   0.605   4.993   1.529   1.974   1.060   1.516   0.955   3.375

   1.440   1.692   2.941   1.565   1.847   6.051   1.215   0.429   6.088   1.325

   2.131   1.109   1.441   2.109   2.927   1.445   2.666   5.229   1.442   2.448

   0.223   1.391   2.090   3.567   1.393   2.109   6.271   1.095   1.928   4.962

   1.093   1.708   3.135   1.095   1.874   0.728   1.093   1.897   3.187   1.093

   1.925   5.306   1.093   1.930   3.245   1.093   1.973   0.096   1.093   1.934

   4.246   1.093   2.034   2.653   1.094   1.845   0.561   1.094   1.888   4.013

   1.094   1.981   4.365   1.093   1.670   2.397   1.093   1.912   0.264   1.093

   1.898   4.521   1.088   2.105   3.160   1.087   2.114   0.418   1.094   1.928

   5.541   1.093   1.889   3.455   1.085   2.113   6.233   1.087   2.088   3.128

   1.087   2.097   3.139   1.033   2.851   3.672
 GRADIENT          0.000  -0.000   0.000 -11.223   0.000   0.000  26.038 -50.277
   0.000 -34.984-159.956 -15.002  39.571 164.032 -55.083  -3.285 -35.252  22.626

 -31.548  11.072   2.028  15.844 -37.724   6.839  16.214  47.396  16.162  16.838

  18.332  -6.457   1.461  -5.958  11.256   6.282 227.357 -37.817 -18.073   4.312

 -31.372  38.488 -10.898  -1.005  18.655  14.554  31.738 -34.147   1.089  -8.783

 -13.587-176.989  64.028  13.862  21.270 -14.840  30.643  55.748  -4.739 -17.921

   1.988   2.123 124.234-155.389  46.589  30.393  10.897  -0.568  43.787 -44.406

 -12.004  34.276 156.718  16.308 -30.949  73.867   5.626 -16.946   1.726  -2.315

 -24.007 -27.257   1.523 -22.202   0.439   0.488 -16.140  -0.311   3.762  -8.450

  -3.464   3.231  -9.386   1.367  -0.382  -7.384  -0.378   3.120 -10.708  -0.746

  -9.008  -8.370  12.462   1.782 -18.176  -8.482  -5.544 -11.162   5.322   0.953

  -9.687   7.104  -2.905 -25.467 -32.200  -0.708 -13.234   1.987   3.937 -11.301

  -2.464  -0.244  -3.537  -5.208   1.037   2.560   4.652  -0.306  -7.102  -0.183

   2.030  -7.043  15.281  -4.764   0.871   1.964  -3.454  -2.501  -0.106  -0.010

  -2.063  -1.342  -0.988 -10.275   2.718   0.481

          DIAGONAL MATRIX USED AS START HESSIAN

*REMARK   3 HET = Not identified; C 21 H 23 N 2 O 2  =    48 atoms res:    1
 PM7 CHARGE=+1 EF NOXYZ PRNT=2 PDBOUT COMPFG GRAPHF


  O(HETATM    1  O1  HET A   1)   0.00000000 +1    0.0000000 +1    0.0000000 +1
  O(HETATM    2  O2  HET A   1)   4.74873900 +1    0.0000000 +1    0.0000000 +1     1     0     0
  N(HETATM    3  N1  HET A   1)   5.05895800 +1   88.5558990 +1    0.0000000 +1     1     2     0
  N(HETATM    4  N2  HET A   1)   2.25219600 +1   55.3219000 +1   -5.0417560 +1     2     1     3
  C(HETATM    5  C1  HET A   1)   2.37816200 +1  170.0737240 +1  123.0683270 +1     4     2     1
  C(HETATM    6  C2  HET A   1)   1.46241200 +1  146.2834190 +1    8.3681780 +1     4     2     1
  C(HETATM    7  C3  HET A   1)   1.51688800 +1   76.4384940 +1  -37.0936910 +1     3     1     2
  C(HETATM    8  C4  HET A   1)   1.54474400 +1  105.5755590 +1   42.7195220 +1     6     4     2
  C(HETATM    9  C5  HET A   1)   1.54894400 +1  113.0414680 +1  156.4352950 +1     8     6     4
  C(HETATM   10  C6  HET A   1)   1.54240600 +1  114.7826970 +1  -62.6867850 +1     7     3     1
  C(HETATM   11  C7  HET A   1)   1.54072100 +1  112.4003510 +1  137.4563320 +1     5     4     2
  C(HETATM   12  C8  HET A   1)   1.50157700 +1   65.5570210 +1   33.3560950 +1     5     4     2
  C(HETATM   13  C9  HET A   1)   1.51426700 +1   83.2143380 +1   70.6711500 +1     3     1     2
  C(HETATM   14  C10 HET A   1)   1.45706000 +1   34.6662820 +1  -73.9136590 +1     1     2     3
  C(HETATM   15  C11 HET A   1)   1.52893000 +1  113.1046990 +1   60.7472560 +1     9     8     6
  C(HETATM   16  C12 HET A   1)   1.51607200 +1   54.6919680 +1 -166.6338410 +1     3     1     2
  C(HETATM   17  C13 HET A   1)   1.43978400 +1   96.9573360 +1  168.5126740 +1     4     2     1
  C(HETATM   18  C14 HET A   1)   1.56505800 +1  105.8328050 +1  -13.3122890 +1    14     1     2
  C(HETATM   19  C15 HET A   1)   1.21525600 +1   24.5829950 +1  -11.1559690 +1     2     1     3
  C(HETATM   20  C16 HET A   1)   1.32517000 +1  122.0887810 +1   63.5345360 +1    15     9     8
  C(HETATM   21  C17 HET A   1)   1.44141400 +1  120.8315880 +1  167.7155690 +1    12     5     4
  C(HETATM   22  C18 HET A   1)   1.44458200 +1  152.7791080 +1  -60.4147480 +1     1     2     3
  C(HETATM   23  C19 HET A   1)   1.44158400 +1  140.2380750 +1   12.7930420 +1    17     4     2
  C(HETATM   24  C20 HET A   1)   1.39132100 +1  119.7753580 +1 -155.6138310 +1    21    12     5
  C(HETATM   25  C21 HET A   1)   1.39305600 +1  120.8124910 +1   -0.7257080 +1    24    21    12
  H(HETATM   26  H2  HET A   1)   1.09460000 +1  110.4495030 +1  -75.6784630 +1     6     4     2
  H(HETATM   27  H3  HET A   1)   1.09288900 +1   97.8373200 +1  179.6055080 +1     7     3     1
  H(HETATM   28  H4  HET A   1)   1.09535900 +1  107.3816680 +1   41.7080600 +1     8     6     4
  H(HETATM   29  H5  HET A   1)   1.09293200 +1  108.6930400 +1 -177.4054780 +1     9     8     6
  H(HETATM   30 1H6  HET A   1)   1.09288600 +1  110.2880920 +1  -55.9905710 +1    10     7     3
  H(HETATM   31 2H6  HET A   1)   1.09302900 +1  110.5581930 +1 -174.0957880 +1    10     7     3
  H(HETATM   32 1H7  HET A   1)   1.09298400 +1  113.0652310 +1    5.5180590 +1    11     5     4
  H(HETATM   33 2H7  HET A   1)   1.09269800 +1  110.8067880 +1 -116.7243050 +1    11     5     4
  H(HETATM   34 1H9  HET A   1)   1.09297700 +1  116.5438430 +1  152.0122960 +1    13     3     1
  H(HETATM   35 2H9  HET A   1)   1.09409500 +1  105.7283480 +1   32.1573580 +1    13     3     1
  H(HETATM   36  H10 HET A   1)   1.09353800 +1  108.1764670 +1 -130.0551500 +1    14     1     2
  H(HETATM   37 1H12 HET A   1)   1.09358200 +1  113.4957700 +1 -109.9142800 +1    16     3     1
  H(HETATM   38 2H12 HET A   1)   1.09329200 +1   95.6855250 +1  137.3410720 +1    16     3     1
  H(HETATM   39 1H14 HET A   1)   1.09311800 +1  109.5338070 +1   15.1439460 +1    18    14     1
  H(HETATM   40 2H14 HET A   1)   1.09250900 +1  108.7330330 +1 -100.9390760 +1    18    14     1
  H(HETATM   41  H16 HET A   1)   1.08763200 +1  120.5882220 +1 -178.9698470 +1    20    15     9
  H(HETATM   42  H17 HET A   1)   1.08662600 +1  121.1452150 +1   23.9223250 +1    21    12     5
  H(HETATM   43 1H18 HET A   1)   1.09372900 +1  110.4800860 +1  -42.5435520 +1    22     1     2
  H(HETATM   44 2H18 HET A   1)   1.09332300 +1  108.2564340 +1 -162.0212750 +1    22     1     2
  H(HETATM   45  H19 HET A   1)   1.08502400 +1  121.0844200 +1   -2.8560130 +1    23    17     4
  H(HETATM   46  H20 HET A   1)   1.08721700 +1  119.6060910 +1  179.2258020 +1    24    21    12
  H(HETATM   47  H21 HET A   1)   1.08711200 +1  120.1358810 +1  179.8391030 +1    25    24    21
  H(HETATM   48  H1  HET A   1)   1.03298200 +1  163.3322900 +1 -149.6131110 +1     3     1     2

 XPARAM 
  1  1    0.0000  1  2    0.0000  1  3    0.0000  2  1    4.7487  2  2    0.0000
  2  3    0.0000  3  1    5.0590  3  2    1.5456  3  3    0.0000  4  1    2.2522
  4  2    0.9655  4  3    6.1952  5  1    2.3782  5  2    2.9683  5  3    2.1479
  6  1    1.4624  6  2    2.5531  6  3    0.1461  7  1    1.5169  7  2    1.3341
  7  3    5.6358  8  1    1.5447  8  2    1.8426  8  3    0.7456  9  1    1.5489
  9  2    1.9729  9  3    2.7303 10  1    1.5424 10  2    2.0033 10  3    5.1891
 11  1    1.5407 11  2    1.9618 11  3    2.3991 12  1    1.5016 12  2    1.1442
 12  3    0.5822 13  1    1.5143 13  2    1.4524 13  3    1.2334 14  1    1.4571
 14  2    0.6050 14  3    4.9931 15  1    1.5289 15  2    1.9740 15  3    1.0602
 16  1    1.5161 16  2    0.9546 16  3    3.3749 17  1    1.4398 17  2    1.6922
 17  3    2.9411 18  1    1.5651 18  2    1.8471 18  3    6.0508 19  1    1.2153
 19  2    0.4291 19  3    6.0885 20  1    1.3252 20  2    2.1309 20  3    1.1089
 21  1    1.4414 21  2    2.1089 21  3    2.9272 22  1    1.4446 22  2    2.6665
 22  3    5.2287 23  1    1.4416 23  2    2.4476 23  3    0.2233 24  1    1.3913
 24  2    2.0905 24  3    3.5672 25  1    1.3931 25  2    2.1086 25  3    6.2705
 26  1    1.0946 26  2    1.9277 26  3    4.9623 27  1    1.0929 27  2    1.7076
 27  3    3.1347 28  1    1.0954 28  2    1.8742 28  3    0.7279 29  1    1.0929
 29  2    1.8971 29  3    3.1869 30  1    1.0929 30  2    1.9249 30  3    5.3060
 31  1    1.0930 31  2    1.9296 31  3    3.2446 32  1    1.0930 32  2    1.9734
 32  3    0.0963 33  1    1.0927 33  2    1.9339 33  3    4.2460 34  1    1.0930
 34  2    2.0341 34  3    2.6531 35  1    1.0941 35  2    1.8453 35  3    0.5613
 36  1    1.0935 36  2    1.8880 36  3    4.0133 37  1    1.0936 37  2    1.9809
 37  3    4.3648 38  1    1.0933 38  2    1.6700 38  3    2.3971 39  1    1.0931
 39  2    1.9117 39  3    0.2643 40  1    1.0925 40  2    1.8977 40  3    4.5215
 41  1    1.0876 41  2    2.1047 41  3    3.1596 42  1    1.0866 42  2    2.1144
 42  3    0.4175 43  1    1.0937 43  2    1.9282 43  3    5.5407 44  1    1.0933
 44  2    1.8894 44  3    3.4554 45  1    1.0850 45  2    2.1133 45  3    6.2333
 46  1    1.0872 46  2    2.0875 46  3    3.1281 47  1    1.0871 47  2    2.0968
 47  3    3.1388 48  1    1.0330 48  2    2.8507 48  3    3.6719
 grad
       0.00001   -0.00001    0.00000  -11.22325    0.00000    0.00000   26.03836  -50.27708
       0.00000  -34.98387 -159.95575  -15.00166   39.57065  164.03249  -55.08265   -3.28544
     -35.25183   22.62581  -31.54814   11.07154    2.02777   15.84407  -37.72360    6.83910
      16.21378   47.39648   16.16206   16.83753   18.33178   -6.45728    1.46070   -5.95818
      11.25588    6.28154  227.35729  -37.81679  -18.07326    4.31202  -31.37205   38.48834
     -10.89800   -1.00538   18.65511   14.55403   31.73795  -34.14704    1.08872   -8.78342
     -13.58713 -176.98864   64.02819   13.86151   21.27003  -14.83985   30.64314   55.74814
      -4.73879  -17.92075    1.98766    2.12252  124.23430 -155.38886   46.58910   30.39286
      10.89703   -0.56796   43.78698  -44.40586  -12.00378   34.27603  156.71838   16.30821
     -30.94870   73.86731    5.62564  -16.94586    1.72643   -2.31459  -24.00720  -27.25696
       1.52256  -22.20214    0.43884    0.48829  -16.13986   -0.31133    3.76168   -8.44967
      -3.46436    3.23082   -9.38601    1.36713   -0.38222   -7.38411   -0.37849    3.11957
     -10.70844   -0.74600   -9.00846   -8.37028   12.46155    1.78212  -18.17600   -8.48163
      -5.54358  -11.16200    5.32216    0.95289   -9.68678    7.10438   -2.90471  -25.46691
     -32.19967   -0.70751  -13.23443    1.98705    3.93698  -11.30097   -2.46406   -0.24408
      -3.53678   -5.20778    1.03748    2.56003    4.65247   -0.30556   -7.10155   -0.18268
       2.02990   -7.04344   15.28061   -4.76413    0.87072    1.96359   -3.45437   -2.50075
      -0.10634   -0.00969   -2.06290   -1.34170   -0.98753  -10.27500    2.71828    0.48084
 CYCLE:     1 TIME:   0.055 TIME LEFT:  2.00D  GRAD.:   505.482 HEAT:  151.4726

          HESSIAN HAS  0 NEGATIVE EIGENVALUE(S)
  MIN SEARCH, CORRECT HESSIAN, TRYING PURE NR STEP
 LAMBDA THAT MINIMIZES ALONG ALL MODES =        0.000000000
 PURE NR-STEP HAS LENGTH   1.10249
 LAMBDA THAT MINIMIZES ALONG ALL MODES =     -306.139507426
 P-RFO-STEP   HAS LENGTH   0.62436
 LAMBDA THAT MINIMIZES ALONG ALL MODES =    -1973.536779655
 QA/TRIM-STEP HAS LENGTH   0.20000

  HEAT OF FORMATION        2361.6946748635382    
 PARAMETERS       -0.002   0.011  -0.001   4.750  -0.008  -0.000   5.053   1.558
   0.001   2.264   1.027   6.202   2.371   2.902   2.175   1.469   2.572   0.137

   1.528   1.330   5.635   1.543   1.862   0.743   1.547   1.956   2.724   1.540

   1.996   5.193   1.544   1.967   2.395   1.501   1.056   0.600   1.522   1.454

   1.248   1.443   0.610   4.993   1.526   1.972   1.046   1.528   0.956   3.379

   1.447   1.766   2.912   1.563   1.838   6.058   1.203   0.407   6.090   1.335

   2.134   1.109   1.403   2.174   2.907   1.439   2.663   5.230   1.432   2.470

   0.230   1.383   2.029   3.561   1.407   2.079   6.269   1.101   1.928   4.964

   1.102   1.720   3.134   1.104   1.876   0.728   1.099   1.898   3.185   1.097

   1.927   5.305   1.097   1.930   3.245   1.097   1.975   0.095   1.097   1.935

   4.250   1.097   2.030   2.653   1.101   1.850   0.564   1.098   1.887   4.013

   1.098   1.979   4.366   1.103   1.684   2.398   1.099   1.913   0.263   1.097

   1.899   4.522   1.090   2.108   3.159   1.087   2.114   0.418   1.097   1.929

   5.540   1.097   1.884   3.458   1.086   2.113   6.235   1.089   2.089   3.128

   1.089   2.098   3.139   1.038   2.851   3.672
 GRADIENT         -0.000  -0.000  -0.000 151.528   0.000   0.000********1093.536
   0.0001689.554**************** -36.273 651.279******** 938.4497641.0791606.917

-306.407********-458.920-757.0673789.2781681.1161190.602**************** 147.677

-505.566 918.782  -2.440 -23.454-134.057************************  -1.306 -44.387

 173.270   0.302 -30.218 -72.564 717.0621190.863******** 223.763******** 427.453

8245.540-565.1037033.178  18.312   0.733 -33.833 -18.924 -60.087 -12.071-204.410

 295.881  34.818************************  48.724  50.297 -77.8138638.3812867.359

2302.712************************ 109.380****************  -6.899  -0.767   5.487

 -19.807 -14.772  -5.671  -8.772  -2.399   9.822 -59.364  29.372  52.681 -34.137

   4.577  23.478 -34.331   6.463 -20.682   2.017  -1.544   1.151   8.446 -15.094

  23.787   7.774   4.998  -8.305   6.164 -20.463  21.535   2.341  -5.471  14.065

 -42.355  27.080  27.657 -57.802 -18.967 -29.947 -10.017   1.919   1.379 -10.050

  -0.715  -1.619   3.528 -46.543  -3.599   3.920  -2.725  -1.105   9.258 -10.925

 -21.022  10.356   1.851  23.070-285.441 201.277  50.047  -3.638   5.069  -2.451

-103.591  41.267  13.001  -6.961  -7.441  -1.345
       HoF         ACTUAL,  PREDICTED ENERGY CHANGE, RATIO
  2361.6946749  2210.2220609         -89.3555184  -24.7351490
 UNACCEPTABLE RATIO, REJECTING STEP, REDUCING DMAX TO 0.1000
  MIN SEARCH, CORRECT HESSIAN, TRYING PURE NR STEP
 LAMBDA THAT MINIMIZES ALONG ALL MODES =        0.000000000
 PURE NR-STEP HAS LENGTH   1.10249
 LAMBDA THAT MINIMIZES ALONG ALL MODES =     -306.139507426
 P-RFO-STEP   HAS LENGTH   0.62436
 LAMBDA THAT MINIMIZES ALONG ALL MODES =    -4464.917268123
 QA/TRIM-STEP HAS LENGTH   0.10000

  HEAT OF FORMATION        508.92745844012825    
 PARAMETERS       -0.001   0.006  -0.001   4.750  -0.004  -0.000   5.056   1.552
   0.001   2.258   0.996   6.198   2.374   2.935   2.161   1.466   2.563   0.142

   1.523   1.332   5.635   1.544   1.852   0.744   1.548   1.965   2.727   1.541

   2.000   5.191   1.542   1.964   2.397   1.501   1.100   0.590   1.519   1.453

   1.240   1.449   0.608   4.993   1.528   1.973   1.054   1.522   0.955   3.377

   1.444   1.729   2.928   1.564   1.843   6.054   1.209   0.418   6.089   1.331

   2.133   1.109   1.421   2.141   2.918   1.442   2.665   5.230   1.436   2.459

   0.226   1.387   2.060   3.564   1.400   2.094   6.270   1.098   1.928   4.963

   1.098   1.714   3.134   1.100   1.875   0.728   1.096   1.898   3.186   1.095

   1.926   5.305   1.095   1.930   3.245   1.095   1.974   0.096   1.095   1.934

   4.248   1.095   2.032   2.653   1.098   1.848   0.563   1.096   1.887   4.013

   1.096   1.980   4.366   1.098   1.677   2.397   1.096   1.912   0.264   1.095

   1.899   4.522   1.089   2.106   3.159   1.087   2.114   0.418   1.095   1.929

   5.540   1.095   1.887   3.456   1.085   2.113   6.234   1.088   2.088   3.128

   1.088   2.098   3.139   1.036   2.851   3.672
 GRADIENT         -0.000   0.000   0.000 184.372   0.000   0.000-564.346 941.197
   0.000 533.1104521.303-679.712****************  52.720 257.4292940.332 556.251

-109.417-564.945-173.339-340.0301415.889 571.186 345.368-815.964********  76.303

-134.280 260.419  -8.520 -34.788-100.708-889.690********-286.025 -14.899 -22.155

 120.959  14.481 -27.390 -48.783 200.132 408.886-655.552 108.023-449.053 106.790

1776.6782501.894 -81.493  16.551   9.248 -27.013   2.474  -7.610  -8.689-107.665

 175.871   7.785********3640.519********  28.861  43.686 -69.1911116.2981917.955

 154.866-873.976********-304.579 655.739********-123.898 -11.491   0.630   1.494

 -22.686 -20.835  -3.518 -14.596  -1.070   5.179 -31.908  11.541  24.567 -18.812

   0.858  12.581 -19.166   4.463  -9.435  -2.450  -0.626   3.724   2.978  -9.448

  11.801   0.988   7.815  -3.601  -2.586 -16.032  11.823  -3.120  -0.847   8.760

 -22.349  15.401   8.182 -38.889 -24.218 -14.218 -11.394   1.976   2.579 -10.497

  -1.608  -0.876   6.511 -23.542   0.399   2.770   1.594  -0.726   5.040  -7.249

 -12.208   6.015   6.418  12.673 -78.991  80.541   2.648  -2.299   0.739  -0.219

 -41.660  27.772   0.458  -7.631  -1.060  -0.414
       HoF         ACTUAL,  PREDICTED ENERGY CHANGE, RATIO
   508.9274584   357.4548444         -47.3087757   -7.5557830
 UNACCEPTABLE RATIO, REJECTING STEP, REDUCING DMAX TO 0.0500
  MIN SEARCH, CORRECT HESSIAN, TRYING PURE NR STEP
 LAMBDA THAT MINIMIZES ALONG ALL MODES =        0.000000000
 PURE NR-STEP HAS LENGTH   1.10249
 LAMBDA THAT MINIMIZES ALONG ALL MODES =     -306.139507426
 P-RFO-STEP   HAS LENGTH   0.62436
 LAMBDA THAT MINIMIZES ALONG ALL MODES =    -9460.194743402
 QA/TRIM-STEP HAS LENGTH   0.05000

  HEAT OF FORMATION        203.59460593764379    
 PARAMETERS       -0.001   0.003  -0.000   4.749  -0.002  -0.000   5.057   1.549
   0.000   2.255   0.981   6.197   2.376   2.952   2.154   1.464   2.558   0.144

   1.520   1.333   5.636   1.544   1.847   0.745   1.548   1.969   2.729   1.542

   2.002   5.190   1.542   1.963   2.398   1.501   1.122   0.586   1.517   1.453

   1.237   1.453   0.606   4.993   1.528   1.974   1.057   1.519   0.955   3.376

   1.442   1.711   2.935   1.564   1.845   6.053   1.212   0.424   6.089   1.328

   2.132   1.109   1.431   2.125   2.923   1.443   2.666   5.229   1.439   2.453

   0.225   1.389   2.075   3.566   1.397   2.101   6.270   1.096   1.928   4.963

   1.095   1.711   3.135   1.098   1.875   0.728   1.095   1.897   3.187   1.094

   1.925   5.306   1.094   1.930   3.245   1.094   1.974   0.096   1.094   1.934

   4.247   1.094   2.033   2.653   1.096   1.847   0.562   1.095   1.888   4.013

   1.095   1.980   4.365   1.096   1.674   2.397   1.095   1.912   0.264   1.094

   1.898   4.522   1.088   2.105   3.160   1.087   2.114   0.418   1.095   1.928

   5.540   1.094   1.888   3.456   1.085   2.113   6.234   1.088   2.088   3.128

   1.088   2.097   3.139   1.034   2.851   3.672
 GRADIENT          0.000  -0.000  -0.000 102.589   0.000   0.000-193.959 505.897
   0.000 198.5442045.766-288.494-351.903-649.138  71.317 101.1831292.931 235.263

 -60.993-210.697 -71.110-148.122 608.032 228.395 144.505-343.625-508.081  42.427

 -37.852  92.337  -6.545 -31.295 -59.387-183.301********  -9.612 -19.799  -8.289

  64.133  24.549 -21.773 -29.077  87.025 192.850-309.002  24.710-152.921  28.736

 457.470 786.302 -91.003  15.307  14.733 -21.623  15.368  22.932  -6.771 -68.531

 109.713   3.971-399.588 950.664-365.970  23.092  33.728 -50.157 234.893 585.663

  11.414-156.893-989.376 -30.254 175.022-470.003  -8.628 -14.118   1.228  -0.447

 -23.525 -24.135  -1.204 -18.161  -0.346   2.824 -22.710   4.955  13.251 -13.019

  -1.313   7.660 -13.667   2.965  -4.610  -4.881  -0.421   3.837  -2.570  -5.444

   2.771  -3.384   9.889  -0.920  -9.283 -12.791   4.238  -6.770   2.032   5.181

 -15.247  10.918   1.905 -31.294 -28.171  -6.994 -12.262   1.988   3.242 -10.865

  -2.039  -0.560   3.189 -14.599   0.790   2.623   3.335  -0.554   0.395  -4.314

  -5.920   1.032  10.099   5.082 -28.557  32.905  -2.415  -2.312   0.166  -0.019

 -18.596  12.864  -1.063  -8.813   1.061   0.038
       HoF         ACTUAL,  PREDICTED ENERGY CHANGE, RATIO
   203.5946059    52.1219919         -24.3230988   -2.1429010
 UNACCEPTABLE RATIO, REJECTING STEP, REDUCING DMAX TO 0.0250
  MIN SEARCH, CORRECT HESSIAN, TRYING PURE NR STEP
 LAMBDA THAT MINIMIZES ALONG ALL MODES =        0.000000000
 PURE NR-STEP HAS LENGTH   1.10249
 LAMBDA THAT MINIMIZES ALONG ALL MODES =     -306.139507426
 P-RFO-STEP   HAS LENGTH   0.62436
 LAMBDA THAT MINIMIZES ALONG ALL MODES =   -19457.659394342
 QA/TRIM-STEP HAS LENGTH   0.02500

  HEAT OF FORMATION        155.66783908857906    
 PARAMETERS       -0.000   0.001  -0.000   4.749  -0.001   0.000   5.058   1.547
   0.000   2.254   0.973   6.196   2.377   2.960   2.151   1.463   2.555   0.145

   1.519   1.334   5.636   1.544   1.845   0.745   1.549   1.971   2.730   1.542

   2.002   5.190   1.541   1.962   2.399   1.501   1.133   0.584   1.515   1.453

   1.235   1.455   0.606   4.993   1.529   1.974   1.059   1.518   0.955   3.375

   1.441   1.701   2.938   1.565   1.846   6.052   1.213   0.426   6.089   1.327

   2.131   1.109   1.436   2.117   2.925   1.444   2.666   5.229   1.440   2.450

   0.224   1.390   2.083   3.566   1.395   2.105   6.270   1.096   1.928   4.962

   1.094   1.709   3.135   1.097   1.874   0.728   1.094   1.897   3.187   1.093

   1.925   5.306   1.094   1.930   3.245   1.094   1.974   0.096   1.093   1.934

   4.246   1.094   2.034   2.653   1.095   1.846   0.562   1.094   1.888   4.013

   1.094   1.981   4.365   1.095   1.672   2.397   1.094   1.912   0.264   1.093

   1.898   4.521   1.088   2.105   3.160   1.087   2.114   0.418   1.094   1.928

   5.541   1.094   1.889   3.456   1.085   2.113   6.234   1.087   2.088   3.128

   1.087   2.097   3.139   1.034   2.851   3.672
 GRADIENT          0.000  -0.000   0.000  48.354   0.000   0.000 -67.514 241.832
   0.000  74.421 936.916-141.290-119.543-173.712  -1.895  46.661 612.314 116.585

 -44.438 -86.130 -31.190 -64.212 278.085 104.028  75.916-143.004-244.830  28.533

  -5.616  35.881  -3.421 -22.387 -28.192 -50.555-450.590 -13.149 -20.108  -1.495

  22.035  30.921 -17.144 -16.265  50.477 105.113-144.196  -8.269 -61.306   5.911

 147.043 196.865  -6.280  14.611  17.862 -18.411  22.690  39.094  -5.769 -46.433

  64.424   3.105 -64.958 240.164-101.506  24.110  24.598 -30.957  89.169 189.189

  -6.858 -22.379-242.090   6.112  38.733-110.335   3.839 -15.507   1.492  -1.391

 -23.802 -25.736   0.132 -20.120   0.038   1.651 -19.114   2.170   8.280 -10.585

  -2.400   5.380 -11.384   2.171  -2.420  -6.126  -0.380   3.582  -6.289  -3.170

  -2.741  -5.807  11.114   0.442 -13.433 -10.782  -0.367  -8.868   3.625   3.149

 -12.290   8.940  -0.651 -28.148 -30.202  -3.721 -12.736   1.990   3.586 -11.076

  -2.252  -0.404   0.273 -10.035   0.904   2.577   4.065  -0.442  -2.937  -2.422

  -2.167  -2.562  12.473   0.465 -11.447  15.400  -3.218  -2.385  -0.000   0.007

  -9.402   5.509  -1.151  -9.516   1.939   0.261
       HoF         ACTUAL,  PREDICTED ENERGY CHANGE, RATIO
   155.6678391     4.1952251         -12.3302082   -0.3402396
 UNACCEPTABLE RATIO, REJECTING STEP, REDUCING DMAX TO 0.0125
  MIN SEARCH, CORRECT HESSIAN, TRYING PURE NR STEP
 LAMBDA THAT MINIMIZES ALONG ALL MODES =        0.000000000
 PURE NR-STEP HAS LENGTH   1.10249
 LAMBDA THAT MINIMIZES ALONG ALL MODES =     -306.139507426
 P-RFO-STEP   HAS LENGTH   0.62436
 LAMBDA THAT MINIMIZES ALONG ALL MODES =   -39456.245567497
 QA/TRIM-STEP HAS LENGTH   0.01250

  HEAT OF FORMATION        149.11842199171952    
 PARAMETERS       -0.000   0.001  -0.000   4.749  -0.000   0.000   5.059   1.546
   0.000   2.253   0.969   6.196   2.378   2.964   2.149   1.463   2.554   0.146

   1.518   1.334   5.636   1.545   1.844   0.745   1.549   1.972   2.730   1.542

   2.003   5.189   1.541   1.962   2.399   1.502   1.139   0.583   1.515   1.452

   1.234   1.456   0.605   4.993   1.529   1.974   1.059   1.517   0.955   3.375

   1.440   1.697   2.940   1.565   1.847   6.051   1.214   0.428   6.089   1.326

   2.131   1.109   1.439   2.113   2.926   1.444   2.666   5.229   1.441   2.449

   0.224   1.391   2.087   3.567   1.394   2.107   6.270   1.095   1.928   4.962

   1.094   1.708   3.135   1.096   1.874   0.728   1.093   1.897   3.187   1.093

   1.925   5.306   1.093   1.930   3.245   1.093   1.973   0.096   1.093   1.934

   4.246   1.093   2.034   2.653   1.095   1.846   0.561   1.094   1.888   4.013

   1.094   1.981   4.365   1.094   1.671   2.397   1.094   1.912   0.264   1.093

   1.898   4.521   1.088   2.105   3.160   1.087   2.114   0.418   1.094   1.928

   5.541   1.094   1.889   3.456   1.085   2.113   6.233   1.087   2.088   3.128

   1.087   2.097   3.139   1.033   2.851   3.672
 GRADIENT          0.000  -0.000   0.000  19.108   0.000   0.000 -17.004  99.455
   0.000  18.618 391.905 -76.288 -30.571  12.602 -32.806  21.648 288.188  66.730

 -37.613 -34.517 -13.830 -24.025 120.502  52.313  45.557 -47.476-115.673  22.437

   7.274  13.162  -1.223 -15.245  -9.556 -14.804 -53.844 -24.827 -19.429   1.572

  -3.160  34.536 -14.248  -8.965  34.395  61.060 -58.694 -22.093 -26.904  -2.327

  50.749 -17.469  32.500  14.236  19.513 -16.672  26.600  47.407  -5.248 -33.257

  35.873   2.673  44.742   7.493 -14.468  26.454  18.404 -17.429  56.095  53.393

 -10.488  14.525  -5.022  13.316  -4.644   0.222   5.563 -16.220   1.618  -1.861

 -23.912 -26.511   0.828 -21.147   0.239   1.067 -17.550   0.895   5.958  -9.479

  -2.938   4.288 -10.351   1.772  -1.381  -6.749  -0.373   3.375  -8.413  -1.970

  -5.779  -7.071  11.773   1.118 -15.728  -9.668  -2.890  -9.993   4.473   2.067

 -10.944   8.009  -1.816 -26.749 -31.201  -2.177 -12.984   1.988   3.762 -11.187

  -2.360  -0.326  -1.527  -7.659   0.964   2.582   4.398  -0.390  -4.914  -1.337

  -0.124  -4.691  13.822  -2.074  -4.720   8.184  -3.378  -2.448  -0.053   0.001

  -5.488   2.019  -1.113  -9.890   2.341   0.371
       HoF         ACTUAL,  PREDICTED ENERGY CHANGE, RATIO
   149.1184220    -2.3541920          -6.2074621    0.3792519
     STEPSIZE USED IS  0.01250
 CALCULATED STEP
    -0.000154  0.000707 -0.000091  0.000123 -0.000484  0.000001 -0.000429  0.000733
     0.000090  0.000834  0.003805  0.000386 -0.000510 -0.004116  0.001498  0.000494
     0.001170 -0.000498  0.000840 -0.000273 -0.000038 -0.000142  0.001184 -0.000134
    -0.000156 -0.001045 -0.000362 -0.000205 -0.000438  0.000210  0.000212  0.000308
    -0.000239 -0.000053 -0.005432  0.000957  0.000605  0.000115  0.000810 -0.001037
     0.000322  0.000001 -0.000188 -0.000136 -0.000755  0.000860  0.000089  0.000216
     0.000517  0.004584 -0.001585 -0.000179 -0.000559  0.000414 -0.000899 -0.001348
     0.000082  0.000749  0.000220 -0.000004 -0.002800  0.004044 -0.001124 -0.000399
    -0.000233  0.000093 -0.000694  0.001400  0.000370 -0.000591 -0.003788 -0.000363
     0.000981 -0.001849 -0.000092  0.000476 -0.000006  0.000069  0.000646  0.000746
    -0.000031  0.000623  0.000087 -0.000003  0.000463  0.000071 -0.000085  0.000265
     0.000119 -0.000071  0.000298  0.000028  0.000020  0.000266  0.000117 -0.000068
     0.000326  0.000067  0.000238  0.000282 -0.000241 -0.000033  0.000523  0.000313
     0.000149  0.000335 -0.000082 -0.000014  0.000303 -0.000132  0.000084  0.000683
     0.000880  0.000024  0.000406  0.000055 -0.000089  0.000337  0.000106  0.000016
     0.000165  0.000194 -0.000013  0.000028 -0.000013  0.000021  0.000230  0.000034
    -0.000041  0.000236 -0.000323  0.000130  0.000041 -0.000029  0.000100  0.000138
     0.000067  0.000013  0.000128  0.000098  0.000038  0.000375 -0.000008  0.000011
     NEW TRUST RADIUS =  0.01250

     HESSIAN IS BEING UPDATED USING THE BFGS UPDATE

*REMARK   3 HET = Not identified; C 21 H 23 N 2 O 2  =    48 atoms res:    1
 PM7 CHARGE=+1 EF NOXYZ PRNT=2 PDBOUT COMPFG GRAPHF


  O(HETATM    1  O1  HET A   1)  -0.00015394 +1    0.0007074 +1   -0.0000912 +1
  O(HETATM    2  O2  HET A   1)   4.74886248 +1   -0.0277379 +1    0.0000717 +1     1     0     0
  N(HETATM    3  N1  HET A   1)   5.05852871 +1   88.5978687 +1    0.0051568 +1     1     2     0
  N(HETATM    4  N2  HET A   1)   2.25302995 +1   55.5399383 +1   -5.0196429 +1     2     1     3
  C(HETATM    5  C1  HET A   1)   2.37765232 +1  169.8379144 +1  123.1541578 +1     4     2     1
  C(HETATM    6  C2  HET A   1)   1.46290559 +1  146.3504554 +1    8.3396640 +1     4     2     1
  C(HETATM    7  C3  HET A   1)   1.51772768 +1   76.4228680 +1  -37.0958729 +1     3     1     2
  C(HETATM    8  C4  HET A   1)   1.54460229 +1  105.6434152 +1   42.7118676 +1     6     4     2
  C(HETATM    9  C5  HET A   1)   1.54878831 +1  112.9815882 +1  156.4145468 +1     8     6     4
  C(HETATM   10  C6  HET A   1)   1.54220076 +1  114.7576082 +1  -62.6747720 +1     7     3     1
  C(HETATM   11  C7  HET A   1)   1.54093305 +1  112.4180210 +1  137.4426325 +1     5     4     2
  C(HETATM   12  C8  HET A   1)   1.50152439 +1   65.2457619 +1   33.4109238 +1     5     4     2
  C(HETATM   13  C9  HET A   1)   1.51487180 +1   83.2209138 +1   70.7175597 +1     3     1     2
  C(HETATM   14  C10 HET A   1)   1.45602261 +1   34.6847259 +1  -73.9135982 +1     1     2     3
  C(HETATM   15  C11 HET A   1)   1.52874181 +1  113.0968963 +1   60.7039874 +1     9     8     6
  C(HETATM   16  C12 HET A   1)   1.51693181 +1   54.6970746 +1 -166.6214874 +1     3     1     2
  C(HETATM   17  C13 HET A   1)   1.44030117 +1   97.2199785 +1  168.4218612 +1     4     2     1
  C(HETATM   18  C14 HET A   1)   1.56487853 +1  105.8007785 +1  -13.2885889 +1    14     1     2
  C(HETATM   19  C15 HET A   1)   1.21435663 +1   24.5057785 +1  -11.1512504 +1     2     1     3
  C(HETATM   20  C16 HET A   1)   1.32591876 +1  122.1013982 +1   63.5343069 +1    15     9     8
  C(HETATM   21  C17 HET A   1)   1.43861419 +1  121.0632763 +1  167.6511438 +1    12     5     4
  C(HETATM   22  C18 HET A   1)   1.44418342 +1  152.7657864 +1  -60.4094449 +1     1     2     3
  C(HETATM   23  C19 HET A   1)   1.44089012 +1  140.3182785 +1   12.8142398 +1    17     4     2
  C(HETATM   24  C20 HET A   1)   1.39073024 +1  119.5583062 +1 -155.6346071 +1    21    12     5
  C(HETATM   25  C21 HET A   1)   1.39403665 +1  120.7065618 +1   -0.7309964 +1    24    21    12
  H(HETATM   26  H2  HET A   1)   1.09507636 +1  110.4491764 +1  -75.6745295 +1     6     4     2
  H(HETATM   27  H3  HET A   1)   1.09353496 +1   97.8800611 +1  179.6037150 +1     7     3     1
  H(HETATM   28  H4  HET A   1)   1.09598224 +1  107.3866613 +1   41.7078998 +1     8     6     4
  H(HETATM   29  H5  HET A   1)   1.09339503 +1  108.6970991 +1 -177.4103493 +1     9     8     6
  H(HETATM   30 1H6  HET A   1)   1.09315053 +1  110.2949329 +1  -55.9946523 +1    10     7     3
  H(HETATM   31 2H6  HET A   1)   1.09332684 +1  110.5597974 +1 -174.0946452 +1    10     7     3
  H(HETATM   32 1H7  HET A   1)   1.09325016 +1  113.0719234 +1    5.5141785 +1    11     5     4
  H(HETATM   33 2H7  HET A   1)   1.09302400 +1  110.8106017 +1 -116.7106954 +1    11     5     4
  H(HETATM   34 1H9  HET A   1)   1.09325906 +1  116.5300243 +1  152.0103981 +1    13     3     1
  H(HETATM   35 2H9  HET A   1)   1.09461772 +1  105.7462743 +1   32.1658885 +1    13     3     1
  H(HETATM   36  H10 HET A   1)   1.09387347 +1  108.1717672 +1 -130.0559705 +1    14     1     2
  H(HETATM   37 1H12 HET A   1)   1.09388510 +1  113.4882258 +1 -109.9094501 +1    16     3     1
  H(HETATM   38 2H12 HET A   1)   1.09397524 +1   95.7359579 +1  137.3424701 +1    16     3     1
  H(HETATM   39 1H14 HET A   1)   1.09352413 +1  109.5369689 +1   15.1388336 +1    18    14     1
  H(HETATM   40 2H14 HET A   1)   1.09284608 +1  108.7390849 +1 -100.9381593 +1    18    14     1
  H(HETATM   41  H16 HET A   1)   1.08779655 +1  120.5993439 +1 -178.9706121 +1    20    15     9
  H(HETATM   42  H17 HET A   1)   1.08665359 +1  121.1444524 +1   23.9235081 +1    21    12     5
  H(HETATM   43 1H18 HET A   1)   1.09395929 +1  110.4820254 +1  -42.5458952 +1    22     1     2
  H(HETATM   44 2H18 HET A   1)   1.09355943 +1  108.2379129 +1 -162.0138344 +1    22     1     2
  H(HETATM   45  H19 HET A   1)   1.08506542 +1  121.0827444 +1   -2.8502818 +1    23    17     4
  H(HETATM   46  H20 HET A   1)   1.08735503 +1  119.6099250 +1  179.2265355 +1    24    21    12
  H(HETATM   47  H21 HET A   1)   1.08723973 +1  120.1414780 +1  179.8412569 +1    25    24    21
  H(HETATM   48  H1  HET A   1)   1.03335705 +1  163.3318228 +1 -149.6124701 +1     3     1     2

 XPARAM 
  1  1   -0.0002  1  2    0.0007  1  3   -0.0001  2  1    4.7489  2  2   -0.0005
  2  3    0.0000  3  1    5.0585  3  2    1.5463  3  3    0.0001  4  1    2.2530
  4  2    0.9694  4  3    6.1956  5  1    2.3777  5  2    2.9642  5  3    2.1494
  6  1    1.4629  6  2    2.5543  6  3    0.1456  7  1    1.5177  7  2    1.3338
  7  3    5.6357  8  1    1.5446  8  2    1.8438  8  3    0.7455  9  1    1.5488
  9  2    1.9719  9  3    2.7299 10  1    1.5422 10  2    2.0029 10  3    5.1893
 11  1    1.5409 11  2    1.9621 11  3    2.3988 12  1    1.5015 12  2    1.1388
 12  3    0.5831 13  1    1.5149 13  2    1.4525 13  3    1.2343 14  1    1.4560
 14  2    0.6054 14  3    4.9931 15  1    1.5287 15  2    1.9739 15  3    1.0595
 16  1    1.5169 16  2    0.9546 16  3    3.3751 17  1    1.4403 17  2    1.6968
 17  3    2.9395 18  1    1.5649 18  2    1.8466 18  3    6.0513 19  1    1.2144
 19  2    0.4277 19  3    6.0886 20  1    1.3259 20  2    2.1311 20  3    1.1089
 21  1    1.4386 21  2    2.1130 21  3    2.9261 22  1    1.4442 22  2    2.6663
 22  3    5.2288 23  1    1.4409 23  2    2.4490 23  3    0.2237 24  1    1.3907
 24  2    2.0867 24  3    3.5668 25  1    1.3940 25  2    2.1067 25  3    6.2704
 26  1    1.0951 26  2    1.9277 26  3    4.9624 27  1    1.0935 27  2    1.7083
 27  3    3.1347 28  1    1.0960 28  2    1.8743 28  3    0.7279 29  1    1.0934
 29  2    1.8971 29  3    3.1868 30  1    1.0932 30  2    1.9250 30  3    5.3059
 31  1    1.0933 31  2    1.9296 31  3    3.2447 32  1    1.0933 32  2    1.9735
 32  3    0.0962 33  1    1.0930 33  2    1.9340 33  3    4.2462 34  1    1.0933
 34  2    2.0338 34  3    2.6531 35  1    1.0946 35  2    1.8456 35  3    0.5614
 36  1    1.0939 36  2    1.8880 36  3    4.0133 37  1    1.0939 37  2    1.9807
 37  3    4.3649 38  1    1.0940 38  2    1.6709 38  3    2.3971 39  1    1.0935
 39  2    1.9118 39  3    0.2642 40  1    1.0928 40  2    1.8979 40  3    4.5215
 41  1    1.0878 41  2    2.1049 41  3    3.1596 42  1    1.0867 42  2    2.1144
 42  3    0.4175 43  1    1.0940 43  2    1.9283 43  3    5.5406 44  1    1.0936
 44  2    1.8891 44  3    3.4555 45  1    1.0851 45  2    2.1133 45  3    6.2334
 46  1    1.0874 46  2    2.0876 46  3    3.1281 47  1    1.0872 47  2    2.0969
 47  3    3.1388 48  1    1.0334 48  2    2.8507 48  3    3.6720
 grad
       0.00001   -0.00000    0.00000   19.10772    0.00000    0.00000  -17.00440   99.45491
       0.00000   18.61819  391.90478  -76.28810  -30.57062   12.60189  -32.80625   21.64833
     288.18770   66.73006  -37.61293  -34.51687  -13.83019  -24.02527  120.50219   52.31269
      45.55685  -47.47596 -115.67322   22.43705    7.27436   13.16217   -1.22267  -15.24490
      -9.55619  -14.80402  -53.84404  -24.82678  -19.42872    1.57245   -3.16008   34.53559
     -14.24785   -8.96518   34.39494   61.06030  -58.69382  -22.09298  -26.90447   -2.32661
      50.74905  -17.46929   32.50046   14.23646   19.51315  -16.67183   26.59998   47.40696
      -5.24773  -33.25713   35.87288    2.67288   44.74201    7.49268  -14.46823   26.45439
      18.40425  -17.42854   56.09473   53.39343  -10.48756   14.52523   -5.02221   13.31613
      -4.64366    0.22210    5.56254  -16.21989    1.61831   -1.86080  -23.91156  -26.51118
       0.82791  -21.14744    0.23923    1.06663  -17.54978    0.89517    5.95827   -9.47867
      -2.93763    4.28754  -10.35063    1.77213   -1.38070   -6.74940   -0.37318    3.37467
      -8.41252   -1.96958   -5.77920   -7.07089   11.77346    1.11842  -15.72814   -9.66792
      -2.88982   -9.99318    4.47289    2.06684  -10.94445    8.00890   -1.81630  -26.74872
     -31.20133   -2.17729  -12.98357    1.98786    3.76239  -11.18686   -2.35969   -0.32602
      -1.52725   -7.65855    0.96396    2.58187    4.39833   -0.38967   -4.91375   -1.33698
      -0.12381   -4.69104   13.82188   -2.07351   -4.72000    8.18361   -3.37796   -2.44764
      -0.05325    0.00136   -5.48812    2.01904   -1.11267   -9.88956    2.34068    0.37121
 CYCLE:     2 TIME:   0.141 TIME LEFT:  2.00D  GRAD.:   584.422 HEAT:  149.1184

          HESSIAN HAS  0 NEGATIVE EIGENVALUE(S)
  MIN SEARCH, CORRECT HESSIAN, TRYING PURE NR STEP
 LAMBDA THAT MINIMIZES ALONG ALL MODES =        0.000000000
 PURE NR-STEP HAS LENGTH   1.29455
 LAMBDA THAT MINIMIZES ALONG ALL MODES =     -208.919436287
 P-RFO-STEP   HAS LENGTH   0.66612
 LAMBDA THAT MINIMIZES ALONG ALL MODES =   -26479.429244875
 QA/TRIM-STEP HAS LENGTH   0.01250

  HEAT OF FORMATION        149.89075189975847    
 PARAMETERS        0.000   0.002  -0.000   4.749   0.001  -0.000   5.059   1.546
  -0.000   2.254   0.964   6.197   2.378   2.962   2.151   1.463   2.549   0.144

   1.519   1.335   5.636   1.545   1.843   0.744   1.548   1.973   2.732   1.542

   2.003   5.189   1.541   1.963   2.399   1.502   1.137   0.584   1.516   1.453

   1.235   1.455   0.607   4.993   1.528   1.973   1.060   1.518   0.956   3.375

   1.440   1.701   2.938   1.565   1.847   6.052   1.214   0.427   6.089   1.327

   2.131   1.109   1.436   2.116   2.926   1.443   2.667   5.229   1.439   2.449

   0.224   1.390   2.085   3.566   1.395   2.106   6.270   1.096   1.928   4.962

   1.094   1.710   3.135   1.097   1.874   0.728   1.094   1.897   3.187   1.094

   1.925   5.306   1.094   1.930   3.245   1.094   1.974   0.096   1.093   1.934

   4.246   1.094   2.034   2.653   1.095   1.846   0.562   1.094   1.888   4.013

   1.094   1.981   4.365   1.095   1.672   2.397   1.094   1.912   0.264   1.093

   1.898   4.521   1.088   2.105   3.159   1.087   2.114   0.418   1.094   1.929

   5.541   1.094   1.889   3.456   1.085   2.113   6.234   1.088   2.088   3.128

   1.087   2.097   3.139   1.034   2.851   3.672
 GRADIENT          0.000  -0.000   0.000 -16.133   0.000   0.000  64.324 -88.444
   0.000 -96.224-601.212 112.870 -51.402 -55.651  -1.506 -29.655-382.956 -51.131

 -26.563  57.921  27.843  54.238-191.952 -56.318 -16.927 138.859 157.936   9.655

  32.829 -30.121  -2.569   4.182  13.460 -28.132-228.509 -18.456 -13.248   4.511

 -23.690  40.694  -2.867   8.158   4.081 -38.761 117.965 -40.107  26.933 -13.850

  90.431  84.992  11.546  12.030  22.652 -11.804  27.355  51.074  -5.256   4.002

 -32.224  -1.140  -4.265 109.832 -52.601  34.880  -1.575  15.939  67.851 115.829

  -9.065  -1.350-107.469  10.763  16.164 -45.852   5.116 -15.269   0.935  -0.764

 -23.307 -26.405   1.036 -22.340   1.146  -0.737 -13.290  -1.959   0.770  -6.411

  -4.335   1.672  -7.303   0.593   1.236  -8.032   0.659   4.991  -9.958  -0.541

  -8.268  -7.615  11.885   1.367 -16.812  -8.734  -4.728 -11.898   5.974  -0.342

  -7.742   6.494  -3.725 -22.133 -32.548   1.374 -12.826   2.170   4.062 -11.017

  -2.231  -0.536  -4.654  -3.417   0.743   2.453   4.031  -0.347  -8.343   0.293

   3.176  -9.475  16.580  -8.114  -8.083  11.835  -3.186  -2.421   0.034   0.031

  -6.905   3.245  -1.076  -9.573   2.931   0.398
       HoF         ACTUAL,  PREDICTED ENERGY CHANGE, RATIO
   149.8907519     0.7723299          -4.8323681   -0.1598243
 UNACCEPTABLE RATIO, REJECTING STEP, REDUCING DMAX TO 0.0062
  MIN SEARCH, CORRECT HESSIAN, TRYING PURE NR STEP
 LAMBDA THAT MINIMIZES ALONG ALL MODES =        0.000000000
 PURE NR-STEP HAS LENGTH   1.29455
 LAMBDA THAT MINIMIZES ALONG ALL MODES =     -208.919436287
 P-RFO-STEP   HAS LENGTH   0.66612
 LAMBDA THAT MINIMIZES ALONG ALL MODES =   -58132.723651119
 QA/TRIM-STEP HAS LENGTH   0.00625

  HEAT OF FORMATION        147.96920977909758    
 PARAMETERS        0.000   0.001  -0.000   4.749   0.000  -0.000   5.059   1.546
  -0.000   2.253   0.966   6.196   2.378   2.964   2.150   1.463   2.552   0.145

   1.518   1.335   5.636   1.545   1.843   0.745   1.548   1.973   2.731   1.542

   2.003   5.189   1.541   1.963   2.399   1.502   1.139   0.584   1.515   1.453

   1.234   1.456   0.606   4.993   1.528   1.974   1.060   1.518   0.955   3.375

   1.440   1.698   2.939   1.565   1.847   6.051   1.214   0.427   6.089   1.326

   2.131   1.109   1.437   2.114   2.926   1.444   2.666   5.229   1.440   2.449

   0.224   1.390   2.086   3.567   1.394   2.107   6.270   1.095   1.928   4.962

   1.094   1.709   3.135   1.096   1.874   0.728   1.094   1.897   3.187   1.093

   1.925   5.306   1.094   1.930   3.245   1.093   1.974   0.096   1.093   1.934

   4.246   1.093   2.034   2.653   1.095   1.846   0.561   1.094   1.888   4.013

   1.094   1.981   4.365   1.094   1.672   2.397   1.094   1.912   0.264   1.093

   1.898   4.521   1.088   2.105   3.160   1.087   2.114   0.418   1.094   1.928

   5.541   1.094   1.889   3.456   1.085   2.113   6.233   1.087   2.088   3.128

   1.087   2.097   3.139   1.034   2.851   3.672
 GRADIENT          0.000  -0.000   0.000  -3.274   0.000   0.000  33.646 -15.997
   0.000 -47.580-189.285  31.653 -32.621  -4.465 -19.173  -7.676 -98.774  -4.168

 -30.739  22.492  10.682  21.335 -59.101 -13.493   9.376  60.635  41.120  14.724

  22.890 -13.505  -1.710  -4.292   4.494 -18.273-106.170 -22.502 -16.074   3.473

 -16.633  38.013  -8.157   0.542  17.024   4.980  40.969 -33.598   6.801  -9.765

  62.012  15.122  25.189  13.054  21.350 -13.934  27.410  50.232  -5.202 -12.994

  -0.965   0.582  30.027  38.090 -25.875  30.516   7.639   0.400  59.144  72.718

 -10.145   9.708 -35.303  12.758   2.181 -13.002   5.519 -15.789   1.266  -1.327

 -23.602 -26.533   1.004 -21.866   0.728   0.057 -15.068  -0.781   2.935  -7.709

  -3.735   2.776  -8.601   1.103   0.127  -7.480   0.163   4.195  -9.447  -1.101

  -7.418  -7.495  11.909   1.323 -16.544  -9.052  -4.120 -11.091   5.319   0.702

  -9.086   7.087  -2.955 -24.116 -32.044  -0.117 -12.924   2.086   3.936 -11.108

  -2.302  -0.425  -3.293  -5.185   0.863   2.515   4.231  -0.358  -6.872  -0.397

   1.819  -7.340  15.382  -5.449  -5.798   9.364  -3.298  -2.440  -0.016   0.018

  -5.839   2.307  -1.087  -9.759   2.699   0.397
       HoF         ACTUAL,  PREDICTED ENERGY CHANGE, RATIO
   147.9692098    -1.1492122          -2.6859491    0.4278608
     STEPSIZE USED IS  0.00625
 CALCULATED STEP
     0.000192  0.000346 -0.000063  0.000033  0.000701 -0.000140  0.000128 -0.000204
    -0.000147  0.000181 -0.003159  0.000873  0.000144 -0.000575  0.000578 -0.000226
    -0.002762 -0.000995  0.000764  0.000774  0.000066  0.000250 -0.000790 -0.000737
    -0.000535  0.000710  0.001174 -0.000240  0.000247 -0.000208  0.000081  0.000624
    -0.000039  0.000238 -0.000214  0.000414  0.000413  0.000364  0.000123 -0.000410
     0.000650  0.000031 -0.000443 -0.000384  0.000423  0.000593  0.000726 -0.000007
    -0.000412  0.001580 -0.000816 -0.000107  0.000096  0.000187 -0.000250 -0.000439
     0.000013  0.000526 -0.000035 -0.000130 -0.001119  0.001172 -0.000174 -0.000402
     0.000153  0.000115 -0.000871  0.000016  0.000098 -0.000271 -0.000385 -0.000332
     0.000341  0.000024 -0.000184  0.000312  0.000088  0.000011  0.000435  0.000570
    -0.000041  0.000381  0.000104 -0.000039  0.000316  0.000104 -0.000114  0.000189
     0.000170 -0.000092  0.000196  0.000085 -0.000006  0.000130  0.000114 -0.000080
     0.000185  0.000142  0.000093  0.000148 -0.000093 -0.000047  0.000296  0.000267
     0.000040  0.000205  0.000034 -0.000053  0.000208 -0.000017  0.000013  0.000474
     0.000650  0.000006  0.000236  0.000074 -0.000089  0.000222  0.000156 -0.000019
     0.000059  0.000230 -0.000041 -0.000033  0.000031 -0.000018  0.000130  0.000134
    -0.000034  0.000120 -0.000130  0.000026  0.000084  0.000013  0.000034  0.000064
     0.000114 -0.000024  0.000096  0.000097 -0.000006  0.000180  0.000071 -0.000032
     NEW TRUST RADIUS =  0.00625
*REMARK   3 HET = Not identified; C 21 H 23 N 2 O 2  =    48 atoms res:    1
 PM7 CHARGE=+1 EF NOXYZ PRNT=2 PDBOUT COMPFG GRAPHF


  O(HETATM    1  O1  HET A   1)   0.00003837 +1    0.0010534 +1   -0.0001546 +1
  O(HETATM    2  O2  HET A   1)   4.74889568 +1    0.0124058 +1   -0.0079735 +1     1     0     0
  N(HETATM    3  N1  HET A   1)   5.05865634 +1   88.5861574 +1   -0.0032454 +1     1     2     0
  N(HETATM    4  N2  HET A   1)   2.25321122 +1   55.3589310 +1   -4.9696103 +1     2     1     3
  C(HETATM    5  C1  HET A   1)   2.37779641 +1  169.8049899 +1  123.1872475 +1     4     2     1
  C(HETATM    6  C2  HET A   1)   1.46267932 +1  146.1922075 +1    8.2826538 +1     4     2     1
  C(HETATM    7  C3  HET A   1)   1.51849208 +1   76.4672185 +1  -37.0921024 +1     3     1     2
  C(HETATM    8  C4  HET A   1)   1.54485214 +1  105.5981317 +1   42.6696481 +1     6     4     2
  C(HETATM    9  C5  HET A   1)   1.54825349 +1  113.0222825 +1  156.4818042 +1     8     6     4
  C(HETATM   10  C6  HET A   1)   1.54196106 +1  114.7717872 +1  -62.6866727 +1     7     3     1
  C(HETATM   11  C7  HET A   1)   1.54101362 +1  112.4537870 +1  137.4404033 +1     5     4     2
  C(HETATM   12  C8  HET A   1)   1.50176279 +1   65.2334761 +1   33.4346277 +1     5     4     2
  C(HETATM   13  C9  HET A   1)   1.51528486 +1   83.2417540 +1   70.7246155 +1     3     1     2
  C(HETATM   14  C10 HET A   1)   1.45561240 +1   34.7219887 +1  -73.9118199 +1     1     2     3
  C(HETATM   15  C11 HET A   1)   1.52829912 +1  113.0749054 +1   60.7282366 +1     9     8     6
  C(HETATM   16  C12 HET A   1)   1.51752443 +1   54.7386632 +1 -166.6218906 +1     3     1     2
  C(HETATM   17  C13 HET A   1)   1.43988901 +1   97.3105298 +1  168.3751164 +1     4     2     1
  C(HETATM   18  C14 HET A   1)   1.56477145 +1  105.8062813 +1  -13.2778532 +1    14     1     2
  C(HETATM   19  C15 HET A   1)   1.21410705 +1   24.4806373 +1  -11.1505313 +1     2     1     3
  C(HETATM   20  C16 HET A   1)   1.32644524 +1  122.0993767 +1   63.5268663 +1    15     9     8
  C(HETATM   21  C17 HET A   1)   1.43749518 +1  121.1304382 +1  167.6411560 +1    12     5     4
  C(HETATM   22  C18 HET A   1)   1.44378186 +1  152.7745290 +1  -60.4028757 +1     1     2     3
  C(HETATM   23  C19 HET A   1)   1.44001875 +1  140.3192053 +1   12.8198285 +1    17     4     2
  C(HETATM   24  C20 HET A   1)   1.39045910 +1  119.5362558 +1 -155.6536545 +1    21    12     5
  C(HETATM   25  C21 HET A   1)   1.39437718 +1  120.7079094 +1   -0.7415154 +1    24    21    12
  H(HETATM   26  H2  HET A   1)   1.09538790 +1  110.4542264 +1  -75.6739276 +1     6     4     2
  H(HETATM   27  H3  HET A   1)   1.09397027 +1   97.9127162 +1  179.6013378 +1     7     3     1
  H(HETATM   28  H4  HET A   1)   1.09636315 +1  107.3925932 +1   41.7056690 +1     8     6     4
  H(HETATM   29  H5  HET A   1)   1.09371096 +1  108.7030815 +1 -177.4168824 +1     9     8     6
  H(HETATM   30 1H6  HET A   1)   1.09333961 +1  110.3046738 +1  -55.9999035 +1    10     7     3
  H(HETATM   31 2H6  HET A   1)   1.09352271 +1  110.5646769 +1 -174.0949702 +1    10     7     3
  H(HETATM   32 1H7  HET A   1)   1.09338021 +1  113.0784502 +1    5.5095682 +1    11     5     4
  H(HETATM   33 2H7  HET A   1)   1.09320866 +1  110.8187377 +1 -116.7053727 +1    11     5     4
  H(HETATM   34 1H9  HET A   1)   1.09340731 +1  116.5247123 +1  152.0077110 +1    13     3     1
  H(HETATM   35 2H9  HET A   1)   1.09491415 +1  105.7615748 +1   32.1682000 +1    13     3     1
  H(HETATM   36  H10 HET A   1)   1.09407873 +1  108.1736918 +1 -130.0590174 +1    14     1     2
  H(HETATM   37 1H12 HET A   1)   1.09409299 +1  113.4872747 +1 -109.9086984 +1    16     3     1
  H(HETATM   38 2H12 HET A   1)   1.09444892 +1   95.7732060 +1  137.3428074 +1    16     3     1
  H(HETATM   39 1H14 HET A   1)   1.09375965 +1  109.5412013 +1   15.1337139 +1    18    14     1
  H(HETATM   40 2H14 HET A   1)   1.09306770 +1  108.7480463 +1 -100.9392301 +1    18    14     1
  H(HETATM   41  H16 HET A   1)   1.08785535 +1  120.6125452 +1 -178.9729687 +1    20    15     9
  H(HETATM   42  H17 HET A   1)   1.08662071 +1  121.1462546 +1   23.9224779 +1    21    12     5
  H(HETATM   43 1H18 HET A   1)   1.09408931 +1  110.4896994 +1  -42.5478176 +1    22     1     2
  H(HETATM   44 2H18 HET A   1)   1.09367893 +1  108.2304390 +1 -162.0123179 +1    22     1     2
  H(HETATM   45  H19 HET A   1)   1.08514922 +1  121.0834693 +1   -2.8483243 +1    23    17     4
  H(HETATM   46  H20 HET A   1)   1.08741899 +1  119.6164624 +1  179.2251535 +1    24    21    12
  H(HETATM   47  H21 HET A   1)   1.08733622 +1  120.1470226 +1  179.8409262 +1    25    24    21
  H(HETATM   48  H1  HET A   1)   1.03353710 +1  163.3358812 +1 -149.6143210 +1     3     1     2

 XPARAM 
  1  1    0.0000  1  2    0.0011  1  3   -0.0002  2  1    4.7489  2  2    0.0002
  2  3   -0.0001  3  1    5.0587  3  2    1.5461  3  3   -0.0001  4  1    2.2532
  4  2    0.9662  4  3    6.1964  5  1    2.3778  5  2    2.9637  5  3    2.1500
  6  1    1.4627  6  2    2.5515  6  3    0.1446  7  1    1.5185  7  2    1.3346
  7  3    5.6358  8  1    1.5449  8  2    1.8430  8  3    0.7447  9  1    1.5483
  9  2    1.9726  9  3    2.7311 10  1    1.5420 10  2    2.0031 10  3    5.1891
 11  1    1.5410 11  2    1.9627 11  3    2.3988 12  1    1.5018 12  2    1.1385
 12  3    0.5835 13  1    1.5153 13  2    1.4528 13  3    1.2344 14  1    1.4556
 14  2    0.6060 14  3    4.9932 15  1    1.5283 15  2    1.9735 15  3    1.0599
 16  1    1.5175 16  2    0.9554 16  3    3.3751 17  1    1.4399 17  2    1.6984
 17  3    2.9387 18  1    1.5648 18  2    1.8467 18  3    6.0514 19  1    1.2141
 19  2    0.4273 19  3    6.0886 20  1    1.3264 20  2    2.1310 20  3    1.1088
 21  1    1.4375 21  2    2.1141 21  3    2.9259 22  1    1.4438 22  2    2.6664
 22  3    5.2290 23  1    1.4400 23  2    2.4490 23  3    0.2237 24  1    1.3905
 24  2    2.0863 24  3    3.5665 25  1    1.3944 25  2    2.1068 25  3    6.2702
 26  1    1.0954 26  2    1.9278 26  3    4.9624 27  1    1.0940 27  2    1.7089
 27  3    3.1346 28  1    1.0964 28  2    1.8744 28  3    0.7279 29  1    1.0937
 29  2    1.8972 29  3    3.1867 30  1    1.0933 30  2    1.9252 30  3    5.3058
 31  1    1.0935 31  2    1.9297 31  3    3.2447 32  1    1.0934 32  2    1.9736
 32  3    0.0962 33  1    1.0932 33  2    1.9342 33  3    4.2463 34  1    1.0934
 34  2    2.0337 34  3    2.6530 35  1    1.0949 35  2    1.8459 35  3    0.5614
 36  1    1.0941 36  2    1.8880 36  3    4.0132 37  1    1.0941 37  2    1.9807
 37  3    4.3649 38  1    1.0944 38  2    1.6716 38  3    2.3971 39  1    1.0938
 39  2    1.9119 39  3    0.2641 40  1    1.0931 40  2    1.8980 40  3    4.5215
 41  1    1.0879 41  2    2.1051 41  3    3.1595 42  1    1.0866 42  2    2.1144
 42  3    0.4175 43  1    1.0941 43  2    1.9284 43  3    5.5406 44  1    1.0937
 44  2    1.8890 44  3    3.4555 45  1    1.0851 45  2    2.1133 45  3    6.2335
 46  1    1.0874 46  2    2.0877 46  3    3.1281 47  1    1.0873 47  2    2.0970
 47  3    3.1388 48  1    1.0335 48  2    2.8507 48  3    3.6719
 grad
       0.00000   -0.00000    0.00000   -3.27364    0.00000    0.00000   33.64573  -15.99744
       0.00000  -47.57950 -189.28457   31.65251  -32.62138   -4.46450  -19.17256   -7.67596
     -98.77435   -4.16822  -30.73892   22.49164   10.68231   21.33514  -59.10150  -13.49284
       9.37643   60.63541   41.11969   14.72375   22.89024  -13.50512   -1.71009   -4.29190
       4.49351  -18.27298 -106.17047  -22.50163  -16.07439    3.47335  -16.63264   38.01336
      -8.15698    0.54217   17.02361    4.98047   40.96908  -33.59798    6.80085   -9.76506
      62.01218   15.12234   25.18937   13.05356   21.34959  -13.93422   27.41044   50.23235
      -5.20169  -12.99406   -0.96514    0.58169   30.02650   38.08957  -25.87481   30.51636
       7.63908    0.39951   59.14421   72.71754  -10.14545    9.70817  -35.30276   12.75775
       2.18137  -13.00186    5.51877  -15.78867    1.26606   -1.32688  -23.60174  -26.53312
       1.00355  -21.86597    0.72782    0.05684  -15.06794   -0.78147    2.93490   -7.70876
      -3.73534    2.77605   -8.60071    1.10288    0.12710   -7.47969    0.16309    4.19524
      -9.44722   -1.10125   -7.41802   -7.49473   11.90886    1.32289  -16.54448   -9.05169
      -4.11996  -11.09106    5.31922    0.70167   -9.08596    7.08726   -2.95451  -24.11569
     -32.04352   -0.11664  -12.92445    2.08570    3.93564  -11.10850   -2.30224   -0.42509
      -3.29297   -5.18530    0.86262    2.51451    4.23110   -0.35787   -6.87246   -0.39698
       1.81885   -7.33979   15.38163   -5.44859   -5.79817    9.36445   -3.29829   -2.43998
      -0.01599    0.01779   -5.83880    2.30749   -1.08725   -9.75860    2.69900    0.39742
 CYCLE:     3 TIME:   0.055 TIME LEFT:  2.00D  GRAD.:   333.236 HEAT:  147.9692

          HESSIAN HAS  0 NEGATIVE EIGENVALUE(S)
  MIN SEARCH, CORRECT HESSIAN, TRYING PURE NR STEP
 LAMBDA THAT MINIMIZES ALONG ALL MODES =        0.000000000
 PURE NR-STEP HAS LENGTH   0.52409
 LAMBDA THAT MINIMIZES ALONG ALL MODES =      -82.272531926
 P-RFO-STEP   HAS LENGTH   0.41332
 LAMBDA THAT MINIMIZES ALONG ALL MODES =   -34461.391961985
 QA/TRIM-STEP HAS LENGTH   0.00625

  HEAT OF FORMATION        146.68922963517252    
 PARAMETERS        0.000   0.001  -0.000   4.749   0.000  -0.000   5.058   1.546
  -0.000   2.254   0.967   6.196   2.379   2.964   2.151   1.463   2.551   0.144

   1.520   1.335   5.636   1.545   1.843   0.745   1.548   1.972   2.731   1.542

   2.003   5.189   1.541   1.963   2.399   1.502   1.141   0.584   1.516   1.453

   1.235   1.455   0.606   4.993   1.528   1.973   1.059   1.518   0.956   3.375

   1.438   1.698   2.938   1.564   1.846   6.052   1.213   0.426   6.089   1.327

   2.131   1.109   1.437   2.113   2.926   1.443   2.666   5.229   1.439   2.447

   0.224   1.390   2.087   3.566   1.394   2.107   6.270   1.096   1.928   4.962

   1.095   1.710   3.135   1.097   1.874   0.728   1.094   1.897   3.187   1.094

   1.925   5.306   1.094   1.930   3.245   1.094   1.974   0.096   1.094   1.934

   4.246   1.094   2.033   2.653   1.095   1.846   0.562   1.094   1.888   4.013

   1.094   1.981   4.365   1.095   1.673   2.397   1.094   1.912   0.264   1.093

   1.898   4.521   1.088   2.105   3.159   1.087   2.114   0.418   1.094   1.928

   5.541   1.094   1.889   3.456   1.085   2.113   6.234   1.088   2.088   3.128

   1.088   2.097   3.139   1.034   2.851   3.672
 GRADIENT          0.000  -0.000   0.000  -1.692   0.000   0.000  21.819  -9.301
   0.000 -26.552 -66.457   8.136 -12.176  26.500 -26.868  -0.075 -15.219  -0.462

 -29.549  12.640   8.633   9.878 -13.742  -5.135  16.541  34.026   9.730  16.057

  21.447  -9.597  -1.220  -4.472   2.496  -6.269  -5.473 -22.599 -15.557   2.094

 -15.365  36.221  -8.540  -1.851  21.820  15.982  15.974 -29.953  -0.158  -7.478

  36.014 -35.048  32.224  12.780  20.664 -14.017  24.407  45.918  -5.485 -16.322

   8.772   0.216  57.330 -21.927  -3.074  28.914   9.144  -5.043  49.362  38.667

 -11.324  18.714  26.412  15.270  -7.500  16.600   6.417 -15.411   1.311  -1.284

 -23.323 -26.071   0.646 -21.317   0.699   0.214 -15.211  -0.531   3.528  -7.836

  -3.588   3.072  -8.591   1.066   0.072  -7.376   0.253   4.361  -9.006  -1.299

  -6.930  -7.391  12.013   1.511 -15.957  -9.064  -3.721 -10.630   4.980   1.032

  -9.355   7.481  -2.505 -23.948 -31.599  -0.344 -12.690   2.087   3.850 -10.991

  -2.205  -0.550  -2.614  -5.839   0.801   2.387   4.285  -0.296  -6.094  -0.875

   1.050  -6.679  14.910  -4.830  -4.036   7.471  -3.126  -2.358  -0.060   0.063

  -4.310   0.950  -0.986  -9.423   2.610   0.381
       HoF         ACTUAL,  PREDICTED ENERGY CHANGE, RATIO
   146.6892296    -1.2799801          -1.4956869    0.8557808
     STEPSIZE USED IS  0.00625
 CALCULATED STEP
     0.000104  0.000117 -0.000043  0.000027 -0.000020 -0.000008 -0.000431 -0.000451
    -0.000028  0.000926  0.001119 -0.000123  0.001055  0.000068  0.000596  0.000146
    -0.000063 -0.000488  0.001010 -0.000068 -0.000166 -0.000130  0.000393 -0.000169
    -0.000419 -0.000811 -0.000036 -0.000369 -0.000403  0.000130  0.000167  0.000302
    -0.000076  0.000605  0.002713  0.000624  0.000599 -0.000005  0.000329 -0.000977
     0.000413  0.000021 -0.000483 -0.000494 -0.000471  0.000957  0.000172  0.000184
    -0.001556 -0.000078 -0.000835 -0.000282 -0.000453  0.000371 -0.000708 -0.001265
     0.000115  0.000657 -0.000171 -0.000091 -0.000842 -0.000751  0.000603 -0.000711
    -0.000165  0.000061 -0.001504 -0.001868  0.000234 -0.000194  0.000894 -0.000430
     0.000093  0.000423 -0.000217  0.000481  0.000002  0.000026  0.000704  0.000794
    -0.000043  0.000652  0.000007 -0.000026  0.000479  0.000044 -0.000124  0.000262
     0.000143 -0.000108  0.000291 -0.000002 -0.000008  0.000246  0.000021 -0.000131
     0.000292  0.000076  0.000185  0.000245 -0.000308 -0.000053  0.000501  0.000288
     0.000093  0.000338 -0.000109 -0.000047  0.000304 -0.000172  0.000060  0.000737
     0.000943  0.000004  0.000406 -0.000037 -0.000129  0.000347  0.000106 -0.000005
     0.000115  0.000202 -0.000043 -0.000032 -0.000099 -0.000007  0.000210  0.000062
    -0.000054  0.000221 -0.000394  0.000115  0.000186 -0.000213  0.000079  0.000104
     0.000035 -0.000017  0.000198 -0.000030  0.000015  0.000317 -0.000038 -0.000031
     NEW TRUST RADIUS =  0.00884
*REMARK   3 HET = Not identified; C 21 H 23 N 2 O 2  =    48 atoms res:    1
 PM7 CHARGE=+1 EF NOXYZ PRNT=2 PDBOUT COMPFG GRAPHF


  O(HETATM    1  O1  HET A   1)   0.00014199 +1    0.0011704 +1   -0.0001975 +1
  O(HETATM    2  O2  HET A   1)   4.74892250 +1    0.0112812 +1   -0.0084126 +1     1     0     0
  N(HETATM    3  N1  HET A   1)   5.05822522 +1   88.5602943 +1   -0.0048434 +1     1     2     0
  N(HETATM    4  N2  HET A   1)   2.25413749 +1   55.4230285 +1   -4.9766480 +1     2     1     3
  C(HETATM    5  C1  HET A   1)   2.37885158 +1  169.8088681 +1  123.2213790 +1     4     2     1
  C(HETATM    6  C2  HET A   1)   1.46282540 +1  146.1886000 +1    8.2547148 +1     4     2     1
  C(HETATM    7  C3  HET A   1)   1.51950245 +1   76.4633019 +1  -37.1015958 +1     3     1     2
  C(HETATM    8  C4  HET A   1)   1.54472205 +1  105.6206417 +1   42.6599656 +1     6     4     2
  C(HETATM    9  C5  HET A   1)   1.54783408 +1  112.9758103 +1  156.4797645 +1     8     6     4
  C(HETATM   10  C6  HET A   1)   1.54159169 +1  114.7486817 +1  -62.6792153 +1     7     3     1
  C(HETATM   11  C7  HET A   1)   1.54118104 +1  112.4711179 +1  137.4360611 +1     5     4     2
  C(HETATM   12  C8  HET A   1)   1.50236736 +1   65.3889428 +1   33.4704033 +1     5     4     2
  C(HETATM   13  C9  HET A   1)   1.51588336 +1   83.2414885 +1   70.7434746 +1     3     1     2
  C(HETATM   14  C10 HET A   1)   1.45463520 +1   34.7456794 +1  -73.9105976 +1     1     2     3
  C(HETATM   15  C11 HET A   1)   1.52781631 +1  113.0465826 +1   60.7012616 +1     9     8     6
  C(HETATM   16  C12 HET A   1)   1.51848119 +1   54.7485434 +1 -166.6113345 +1     3     1     2
  C(HETATM   17  C13 HET A   1)   1.43833280 +1   97.3060893 +1  168.3273021 +1     4     2     1
  C(HETATM   18  C14 HET A   1)   1.56448979 +1  105.7803019 +1  -13.2565960 +1    14     1     2
  C(HETATM   19  C15 HET A   1)   1.21339876 +1   24.4081725 +1  -11.1439239 +1     2     1     3
  C(HETATM   20  C16 HET A   1)   1.32710218 +1  122.0895872 +1   63.5216669 +1    15     9     8
  C(HETATM   21  C17 HET A   1)   1.43665298 +1  121.0873878 +1  167.6757184 +1    12     5     4
  C(HETATM   22  C18 HET A   1)   1.44307039 +1  152.7650780 +1  -60.3993709 +1     1     2     3
  C(HETATM   23  C19 HET A   1)   1.43851480 +1  140.2121923 +1   12.8332412 +1    17     4     2
  C(HETATM   24  C20 HET A   1)   1.39026523 +1  119.5875043 +1 -155.6782649 +1    21    12     5
  C(HETATM   25  C21 HET A   1)   1.39447039 +1  120.7321395 +1   -0.7539378 +1    24    21    12
  H(HETATM   26  H2  HET A   1)   1.09586924 +1  110.4543412 +1  -75.6724363 +1     6     4     2
  H(HETATM   27  H3  HET A   1)   1.09467379 +1   97.9582315 +1  179.5988657 +1     7     3     1
  H(HETATM   28  H4  HET A   1)   1.09701520 +1  107.3930057 +1   41.7042033 +1     8     6     4
  H(HETATM   29  H5  HET A   1)   1.09419043 +1  108.7055794 +1 -177.4240031 +1     9     8     6
  H(HETATM   30 1H6  HET A   1)   1.09360153 +1  110.3128877 +1  -56.0061015 +1    10     7     3
  H(HETATM   31 2H6  HET A   1)   1.09381350 +1  110.5645342 +1 -174.0954558 +1    10     7     3
  H(HETATM   32 1H7  HET A   1)   1.09362638 +1  113.0796701 +1    5.5020382 +1    11     5     4
  H(HETATM   33 2H7  HET A   1)   1.09350055 +1  110.8231160 +1 -116.6947629 +1    11     5     4
  H(HETATM   34 1H9  HET A   1)   1.09365208 +1  116.5070375 +1  152.0046492 +1    13     3     1
  H(HETATM   35 2H9  HET A   1)   1.09541482 +1  105.7780713 +1   32.1735534 +1    13     3     1
  H(HETATM   36  H10 HET A   1)   1.09441677 +1  108.1674605 +1 -130.0617102 +1    14     1     2
  H(HETATM   37 1H12 HET A   1)   1.09439669 +1  113.4774431 +1 -109.9052628 +1    16     3     1
  H(HETATM   38 2H12 HET A   1)   1.09518572 +1   95.8272470 +1  137.3430276 +1    16     3     1
  H(HETATM   39 1H14 HET A   1)   1.09416535 +1  109.5391082 +1   15.1263428 +1    18    14     1
  H(HETATM   40 2H14 HET A   1)   1.09341432 +1  108.7541043 +1 -100.9395028 +1    18    14     1
  H(HETATM   41  H16 HET A   1)   1.08797046 +1  120.6240936 +1 -178.9754207 +1    20    15     9
  H(HETATM   42  H17 HET A   1)   1.08658916 +1  121.1405583 +1   23.9221016 +1    21    12     5
  H(HETATM   43 1H18 HET A   1)   1.09429883 +1  110.4932438 +1  -42.5509098 +1    22     1     2
  H(HETATM   44 2H18 HET A   1)   1.09389992 +1  108.2078650 +1 -162.0057206 +1    22     1     2
  H(HETATM   45  H19 HET A   1)   1.08533482 +1  121.0712466 +1   -2.8438142 +1    23    17     4
  H(HETATM   46  H20 HET A   1)   1.08752332 +1  119.6184439 +1  179.2241550 +1    24    21    12
  H(HETATM   47  H21 HET A   1)   1.08753405 +1  120.1453011 +1  179.8417580 +1    25    24    21
  H(HETATM   48  H1  HET A   1)   1.03385415 +1  163.3336883 +1 -149.6161225 +1     3     1     2

 XPARAM 
  1  1    0.0001  1  2    0.0012  1  3   -0.0002  2  1    4.7489  2  2    0.0002
  2  3   -0.0001  3  1    5.0582  3  2    1.5457  3  3   -0.0001  4  1    2.2541
  4  2    0.9673  4  3    6.1963  5  1    2.3789  5  2    2.9637  5  3    2.1506
  6  1    1.4628  6  2    2.5515  6  3    0.1441  7  1    1.5195  7  2    1.3345
  7  3    5.6356  8  1    1.5447  8  2    1.8434  8  3    0.7446  9  1    1.5478
  9  2    1.9718  9  3    2.7311 10  1    1.5416 10  2    2.0027 10  3    5.1892
 11  1    1.5412 11  2    1.9630 11  3    2.3987 12  1    1.5024 12  2    1.1413
 12  3    0.5842 13  1    1.5159 13  2    1.4528 13  3    1.2347 14  1    1.4546
 14  2    0.6064 14  3    4.9932 15  1    1.5278 15  2    1.9730 15  3    1.0594
 16  1    1.5185 16  2    0.9555 16  3    3.3753 17  1    1.4383 17  2    1.6983
 17  3    2.9379 18  1    1.5645 18  2    1.8462 18  3    6.0518 19  1    1.2134
 19  2    0.4260 19  3    6.0887 20  1    1.3271 20  2    2.1309 20  3    1.1087
 21  1    1.4367 21  2    2.1134 21  3    2.9265 22  1    1.4431 22  2    2.6663
 22  3    5.2290 23  1    1.4385 23  2    2.4472 23  3    0.2240 24  1    1.3903
 24  2    2.0872 24  3    3.5661 25  1    1.3945 25  2    2.1072 25  3    6.2700
 26  1    1.0959 26  2    1.9278 26  3    4.9625 27  1    1.0947 27  2    1.7097
 27  3    3.1346 28  1    1.0970 28  2    1.8744 28  3    0.7279 29  1    1.0942
 29  2    1.8973 29  3    3.1866 30  1    1.0936 30  2    1.9253 30  3    5.3057
 31  1    1.0938 31  2    1.9297 31  3    3.2446 32  1    1.0936 32  2    1.9736
 32  3    0.0960 33  1    1.0935 33  2    1.9342 33  3    4.2465 34  1    1.0937
 34  2    2.0334 34  3    2.6530 35  1    1.0954 35  2    1.8462 35  3    0.5615
 36  1    1.0944 36  2    1.8879 36  3    4.0132 37  1    1.0944 37  2    1.9806
 37  3    4.3650 38  1    1.0952 38  2    1.6725 38  3    2.3971 39  1    1.0942
 39  2    1.9118 39  3    0.2640 40  1    1.0934 40  2    1.8981 40  3    4.5215
 41  1    1.0880 41  2    2.1053 41  3    3.1595 42  1    1.0866 42  2    2.1143
 42  3    0.4175 43  1    1.0943 43  2    1.9285 43  3    5.5405 44  1    1.0939
 44  2    1.8886 44  3    3.4557 45  1    1.0853 45  2    2.1131 45  3    6.2336
 46  1    1.0875 46  2    2.0877 46  3    3.1281 47  1    1.0875 47  2    2.0969
 47  3    3.1388 48  1    1.0339 48  2    2.8507 48  3    3.6719
 grad
       0.00000   -0.00001    0.00000   -1.69163    0.00000    0.00000   21.81875   -9.30126
       0.00000  -26.55249  -66.45740    8.13573  -12.17647   26.50007  -26.86757   -0.07469
     -15.21872   -0.46173  -29.54921   12.64045    8.63340    9.87844  -13.74163   -5.13517
      16.54085   34.02583    9.72973   16.05701   21.44692   -9.59744   -1.21982   -4.47226
       2.49572   -6.26890   -5.47305  -22.59855  -15.55716    2.09439  -15.36480   36.22124
      -8.53969   -1.85138   21.82012   15.98218   15.97399  -29.95313   -0.15819   -7.47808
      36.01419  -35.04780   32.22388   12.77969   20.66435  -14.01664   24.40714   45.91768
      -5.48453  -16.32196    8.77156    0.21610   57.32957  -21.92698   -3.07429   28.91366
       9.14373   -5.04290   49.36160   38.66657  -11.32441   18.71416   26.41182   15.26974
      -7.49986   16.60025    6.41721  -15.41133    1.31055   -1.28361  -23.32290  -26.07062
       0.64635  -21.31725    0.69947    0.21401  -15.21106   -0.53061    3.52759   -7.83596
      -3.58775    3.07156   -8.59108    1.06561    0.07209   -7.37587    0.25293    4.36137
      -9.00633   -1.29870   -6.92961   -7.39059   12.01262    1.51135  -15.95734   -9.06436
      -3.72068  -10.63036    4.98013    1.03164   -9.35478    7.48119   -2.50489  -23.94836
     -31.59925   -0.34390  -12.68990    2.08675    3.85039  -10.99129   -2.20497   -0.54954
      -2.61358   -5.83877    0.80139    2.38708    4.28532   -0.29610   -6.09372   -0.87477
       1.04991   -6.67887   14.91025   -4.83043   -4.03585    7.47114   -3.12616   -2.35821
      -0.06013    0.06317   -4.31039    0.95031   -0.98616   -9.42329    2.60979    0.38102
 CYCLE:     4 TIME:   0.023 TIME LEFT:  2.00D  GRAD.:   198.596 HEAT:  146.6892

          HESSIAN HAS  0 NEGATIVE EIGENVALUE(S)
  MIN SEARCH, CORRECT HESSIAN, TRYING PURE NR STEP
 LAMBDA THAT MINIMIZES ALONG ALL MODES =        0.000000000
 PURE NR-STEP HAS LENGTH   0.51261
 LAMBDA THAT MINIMIZES ALONG ALL MODES =      -72.201892070
 P-RFO-STEP   HAS LENGTH   0.41065
 LAMBDA THAT MINIMIZES ALONG ALL MODES =   -20861.515944110
 QA/TRIM-STEP HAS LENGTH   0.00884

  HEAT OF FORMATION        145.61128239314712    
 PARAMETERS        0.000   0.002  -0.000   4.749  -0.000  -0.000   5.058   1.546
  -0.000   2.255   0.970   6.196   2.380   2.962   2.152   1.463   2.552   0.144

   1.521   1.334   5.635   1.545   1.844   0.745   1.547   1.971   2.731   1.541

   2.002   5.190   1.542   1.963   2.399   1.503   1.141   0.585   1.517   1.453

   1.235   1.453   0.607   4.993   1.527   1.972   1.059   1.520   0.956   3.376

   1.437   1.701   2.936   1.564   1.846   6.052   1.212   0.424   6.089   1.328

   2.131   1.109   1.434   2.115   2.926   1.442   2.666   5.229   1.437   2.446

   0.224   1.390   2.086   3.565   1.395   2.107   6.270   1.097   1.928   4.962

   1.096   1.711   3.135   1.098   1.874   0.728   1.095   1.897   3.186   1.094

   1.926   5.306   1.094   1.930   3.245   1.094   1.974   0.096   1.094   1.934

   4.247   1.094   2.033   2.653   1.096   1.847   0.562   1.095   1.888   4.013

   1.095   1.980   4.365   1.096   1.674   2.397   1.095   1.912   0.264   1.094

   1.898   4.521   1.088   2.106   3.159   1.087   2.114   0.418   1.095   1.929

   5.540   1.094   1.888   3.456   1.086   2.113   6.234   1.088   2.088   3.128

   1.088   2.097   3.139   1.034   2.851   3.672
 GRADIENT          0.000  -0.000   0.000  12.523   0.000   0.000  -3.526  52.495
   0.000   8.150 226.007 -35.587 -30.548 -17.743 -20.742  13.244 160.682  25.306

 -30.655 -14.023  -1.169 -12.798  72.267  22.513  31.598 -18.691 -59.708  19.499

  15.227   1.695  -1.253  -8.290  -6.596  -9.647 -74.401 -17.625 -15.338   0.067

  -4.721  32.524  -9.949  -6.897  29.687  39.181 -31.931 -22.396 -14.975  -3.656

  50.698   7.250  22.537  12.527  19.389 -14.588  19.940  39.015  -5.929 -23.181

  25.965   0.279  37.181  17.326 -17.460  26.345  13.166 -14.001  52.079  62.807

 -10.907  11.908 -12.879  14.928   0.918  -0.970   6.654 -14.672   1.299  -1.108

 -22.740 -25.324   0.146 -20.164   0.521   0.748 -15.843   0.210   4.962  -8.295

  -3.220   3.733  -8.969   1.272  -0.486  -6.925   0.317   4.500  -7.756  -1.867

  -5.423  -6.757  11.895   1.432 -14.475  -9.383  -2.506  -9.719   4.341   1.716

  -9.788   8.024  -1.873 -23.953 -30.760  -1.052 -12.281   2.098   3.712 -10.755

  -2.046  -0.707  -1.488  -6.888   0.787   2.239   4.113  -0.243  -4.856  -1.554

  -0.071  -5.302  14.014  -3.369  -5.300   8.882  -2.890  -2.222  -0.123   0.103

  -4.705   1.453  -0.922  -8.859   2.387   0.327
       HoF         ACTUAL,  PREDICTED ENERGY CHANGE, RATIO
   145.6112824    -1.0779472          -1.6606241    0.6491218
     STEPSIZE USED IS  0.00884
 CALCULATED STEP
     0.000048  0.000506 -0.000071  0.000105 -0.000284  0.000005 -0.000653 -0.000013
    -0.000025  0.001213  0.002268 -0.000222  0.000933 -0.001257  0.001240  0.000362
     0.000193 -0.000146  0.001551 -0.000174 -0.000450 -0.000082  0.000492  0.000066
    -0.000549 -0.001118 -0.000222 -0.000512 -0.000684  0.000333  0.000350  0.000486
    -0.000171  0.000442 -0.000004  0.001012  0.000972  0.000154  0.000638 -0.001645
     0.000740  0.000057 -0.000750 -0.000626 -0.000605  0.001524  0.000358  0.000277
    -0.001336  0.002203 -0.001649 -0.000381 -0.000647  0.000595 -0.001125 -0.001775
     0.000211  0.001139 -0.000232 -0.000096 -0.002529  0.001631 -0.000056 -0.001001
    -0.000118  0.000195 -0.001891 -0.001437  0.000457 -0.000632 -0.001257 -0.000829
     0.000659 -0.000578 -0.000397  0.000800  0.000047  0.000036  0.001173  0.001338
    -0.000052  0.001094  0.000053 -0.000036  0.000801  0.000122 -0.000199  0.000444
     0.000281 -0.000175  0.000488  0.000049 -0.000027  0.000443  0.000070 -0.000234
     0.000499  0.000169  0.000301  0.000436 -0.000476 -0.000098  0.000839  0.000517
     0.000149  0.000575 -0.000130 -0.000077  0.000522 -0.000253  0.000091  0.001206
     0.001596 -0.000004  0.000691 -0.000016 -0.000208  0.000593  0.000212  0.000002
     0.000207  0.000383 -0.000064 -0.000012 -0.000120 -0.000012  0.000353  0.000158
    -0.000068  0.000389 -0.000605  0.000200  0.000258 -0.000229  0.000123  0.000199
     0.000103 -0.000029  0.000285  0.000061  0.000021  0.000562 -0.000019 -0.000048
     NEW TRUST RADIUS =  0.01250
*REMARK   3 HET = Not identified; C 21 H 23 N 2 O 2  =    48 atoms res:    1
 PM7 CHARGE=+1 EF NOXYZ PRNT=2 PDBOUT COMPFG GRAPHF


  O(HETATM    1  O1  HET A   1)   0.00019045 +1    0.0016764 +1   -0.0002687 +1
  O(HETATM    2  O2  HET A   1)   4.74902708 +1   -0.0049780 +1   -0.0081309 +1     1     0     0
  N(HETATM    3  N1  HET A   1)   5.05757258 +1   88.5595336 +1   -0.0062518 +1     1     2     0
  N(HETATM    4  N2  HET A   1)   2.25535028 +1   55.5529791 +1   -4.9893574 +1     2     1     3
  C(HETATM    5  C1  HET A   1)   2.37978422 +1  169.7368606 +1  123.2923997 +1     4     2     1
  C(HETATM    6  C2  HET A   1)   1.46318788 +1  146.1996608 +1    8.2463729 +1     4     2     1
  C(HETATM    7  C3  HET A   1)   1.52105314 +1   76.4533518 +1  -37.1273534 +1     3     1     2
  C(HETATM    8  C4  HET A   1)   1.54464024 +1  105.6488149 +1   42.6637692 +1     6     4     2
  C(HETATM    9  C5  HET A   1)   1.54728511 +1  112.9117250 +1  156.4670361 +1     8     6     4
  C(HETATM   10  C6  HET A   1)   1.54107995 +1  114.7095196 +1  -62.6601284 +1     7     3     1
  C(HETATM   11  C7  HET A   1)   1.54153087 +1  112.4989587 +1  137.4262402 +1     5     4     2
  C(HETATM   12  C8  HET A   1)   1.50280891 +1   65.3886938 +1   33.5284098 +1     5     4     2
  C(HETATM   13  C9  HET A   1)   1.51685544 +1   83.2503160 +1   70.7800340 +1     3     1     2
  C(HETATM   14  C10 HET A   1)   1.45298994 +1   34.7880778 +1  -73.9073107 +1     1     2     3
  C(HETATM   15  C11 HET A   1)   1.52706587 +1  113.0107111 +1   60.6666132 +1     9     8     6
  C(HETATM   16  C12 HET A   1)   1.52000479 +1   54.7690618 +1 -166.5954483 +1     3     1     2
  C(HETATM   17  C13 HET A   1)   1.43699719 +1   97.4323244 +1  168.2328017 +1     4     2     1
  C(HETATM   18  C14 HET A   1)   1.56410914 +1  105.7432553 +1  -13.2224843 +1    14     1     2
  C(HETATM   19  C15 HET A   1)   1.21227376 +1   24.3064781 +1  -11.1318480 +1     2     1     3
  C(HETATM   20  C16 HET A   1)   1.32824101 +1  122.0762821 +1   63.5161853 +1    15     9     8
  C(HETATM   21  C17 HET A   1)   1.43412413 +1  121.1808612 +1  167.6725094 +1    12     5     4
  C(HETATM   22  C18 HET A   1)   1.44206893 +1  152.7583100 +1  -60.3882225 +1     1     2     3
[...]
    121         41  H    BOND            1.091704     -0.014789  KCAL/ANGSTROM
    122         41  H    ANGLE         122.155728     -0.118447  KCAL/RADIAN  
    123         41  H    DIHEDRAL      176.822485      0.012593  KCAL/RADIAN  
    124         42  H    BOND            1.086383     -0.030119  KCAL/ANGSTROM
    125         42  H    ANGLE         121.303873      0.005661  KCAL/RADIAN  
    126         42  H    DIHEDRAL        3.487348     -0.017229  KCAL/RADIAN  
    127         43  H    BOND            1.107573     -0.060637  KCAL/ANGSTROM
    128         43  H    ANGLE         112.323293     -0.062190  KCAL/RADIAN  
    129         43  H    DIHEDRAL      315.176106      0.002410  KCAL/RADIAN  
    130         44  H    BOND            1.113649     -0.040800  KCAL/ANGSTROM
    131         44  H    ANGLE         101.693957     -0.086398  KCAL/RADIAN  
    132         44  H    DIHEDRAL      199.670800      0.026390  KCAL/RADIAN  
    133         45  H    BOND            1.093697     -0.071414  KCAL/ANGSTROM
    134         45  H    ANGLE         121.084017     -0.095522  KCAL/RADIAN  
    135         45  H    DIHEDRAL      359.523385     -0.015625  KCAL/RADIAN  
    136         46  H    BOND            1.090262     -0.046231  KCAL/ANGSTROM
    137         46  H    ANGLE         119.516794     -0.027444  KCAL/RADIAN  
    138         46  H    DIHEDRAL      180.585092      0.042135  KCAL/RADIAN  
    139         47  H    BOND            1.094099     -0.059003  KCAL/ANGSTROM
    140         47  H    ANGLE         119.503909     -0.065684  KCAL/RADIAN  
    141         47  H    DIHEDRAL      179.167686     -0.038040  KCAL/RADIAN  
    142         48  H    BOND            1.045519     -0.059976  KCAL/ANGSTROM
    143         48  H    ANGLE         169.058300     -0.065794  KCAL/RADIAN  
    144         48  H    DIHEDRAL      208.304243      0.045152  KCAL/RADIAN  




  ATOM               CHEMICAL                 BOND LENGTH      BOND ANGLE     TWIST ANGLE 
 NUMBER               SYMBOL                  (ANGSTROMS)      (DEGREES)       (DEGREES) 
   (I)                                           NA:I           NB:NA:I       NC:NB:NA:I       NA    NB    NC 
     1       O(HETATM    1  O1  HET A   1)    0.35361752  *    0.0829784  *    0.1588935  *
     2       O(HETATM    2  O2  HET A   1)    4.57202997  *   -3.8515581  *  -23.8454004  *     1     0     0
     3       N(HETATM    3  N1  HET A   1)    4.89902922  *   92.9652983  *   24.4791039  *     1     2     0
     4       N(HETATM    4  N2  HET A   1)    2.26550652  *   51.8271178  *  -13.0300268  *     2     1     3
     5       C(HETATM    5  C1  HET A   1)    2.42646563  *  163.2316837  *  113.4026102  *     4     2     1
     6       C(HETATM    6  C2  HET A   1)    1.48740351  *  144.6454595  *   23.2669769  *     4     2     1
     7       C(HETATM    7  C3  HET A   1)    1.55327484  *   76.9861816  *  -30.3552190  *     3     1     2
     8       C(HETATM    8  C4  HET A   1)    1.54032367  *  106.6128988  *   29.3695068  *     6     4     2
     9       C(HETATM    9  C5  HET A   1)    1.53079891  *  111.2719401  *  160.3646355  *     8     6     4
    10       C(HETATM   10  C6  HET A   1)    1.52004545  *  109.8588880  *  -65.0284235  *     7     3     1
    11       C(HETATM   11  C7  HET A   1)    1.54579622  *  112.2437365  *  154.0732240  *     5     4     2
    12       C(HETATM   12  C8  HET A   1)    1.49809206  *   68.1122904  *   50.5907043  *     5     4     2
    13       C(HETATM   13  C9  HET A   1)    1.52816773  *   77.0316035  *   81.1040316  *     3     1     2
    14       C(HETATM   14  C10 HET A   1)    1.41733412  *   42.3470009  *  -78.5112887  *     1     2     3
    15       C(HETATM   15  C11 HET A   1)    1.50114963  *  114.2753819  *   55.0680733  *     9     8     6
    16       C(HETATM   16  C12 HET A   1)    1.51897234  *   60.4657253  * -155.5558942  *     3     1     2
    17       C(HETATM   17  C13 HET A   1)    1.41571596  *   98.0393575  *  162.6029647  *     4     2     1
    18       C(HETATM   18  C14 HET A   1)    1.54158264  *  102.0517264  *  -20.1973515  *    14     1     2
    19       C(HETATM   19  C15 HET A   1)    1.20491026  *   19.2724144  *   -5.4808145  *     2     1     3
    20       C(HETATM   20  C16 HET A   1)    1.33664130  *  124.4766451  *   57.6701448  *    15     9     8
    21       C(HETATM   21  C17 HET A   1)    1.38336324  *  129.7816050  *  178.0054397  *    12     5     4
    22       C(HETATM   22  C18 HET A   1)    1.41110711  *  158.0882569  *  -66.2014121  *     1     2     3
    23       C(HETATM   23  C19 HET A   1)    1.39050283  *  127.9490341  *   16.3481210  *    17     4     2
    24       C(HETATM   24  C20 HET A   1)    1.39701130  *  118.6187220  * -176.2167661  *    21    12     5
    25       C(HETATM   25  C21 HET A   1)    1.39563787  *  120.7822562  *    1.0335222  *    24    21    12
    26       H(HETATM   26  H2  HET A   1)    1.12015423  *  108.8060694  *  -89.0197117  *     6     4     2
    27       H(HETATM   27  H3  HET A   1)    1.12310494  *  106.6836344  *  175.3338138  *     7     3     1
    28       H(HETATM   28  H4  HET A   1)    1.12751180  *  108.9561302  *   42.8943733  *     8     6     4
    29       H(HETATM   29  H5  HET A   1)    1.12292382  *  109.1103462  *  176.8053925  *     9     8     6
    30       H(HETATM   30 1H6  HET A   1)    1.10628182  *  112.4190617  *  -59.6808294  *    10     7     3
    31       H(HETATM   31 2H6  HET A   1)    1.11527858  *  109.4003882  * -174.5866136  *    10     7     3
    32       H(HETATM   32 1H7  HET A   1)    1.11017060  *  111.4465298  *    3.3048237  *    11     5     4
    33       H(HETATM   33 2H7  HET A   1)    1.10877670  *  110.8946972  * -112.4629311  *    11     5     4
    34       H(HETATM   34 1H9  HET A   1)    1.10978214  *  109.8704158  *  155.3392010  *    13     3     1
    35       H(HETATM   35 2H9  HET A   1)    1.11463606  *  110.0120012  *   37.2657206  *    13     3     1
    36       H(HETATM   36  H10 HET A   1)    1.11246092  *  109.6557536  * -138.5797254  *    14     1     2
    37       H(HETATM   37 1H12 HET A   1)    1.11624086  *  108.6915256  * -107.8894746  *    16     3     1
    38       H(HETATM   38 2H12 HET A   1)    1.11911397  *  108.9614150  *  137.1226851  *    16     3     1
    39       H(HETATM   39 1H14 HET A   1)    1.12194155  *  109.0111575  *   -1.1385979  *    18    14     1
    40       H(HETATM   40 2H14 HET A   1)    1.11457647  *  110.2265619  * -114.8280228  *    18    14     1
    41       H(HETATM   41  H16 HET A   1)    1.09170374  *  122.1557278  *  176.8224853  *    20    15     9
    42       H(HETATM   42  H17 HET A   1)    1.08638284  *  121.3038729  *    3.4873480  *    21    12     5
    43       H(HETATM   43 1H18 HET A   1)    1.10757313  *  112.3232930  *  -44.8238943  *    22     1     2
    44       H(HETATM   44 2H18 HET A   1)    1.11364877  *  101.6939572  * -160.3292004  *    22     1     2
    45       H(HETATM   45  H19 HET A   1)    1.09369707  *  121.0840168  *   -0.4766147  *    23    17     4
    46       H(HETATM   46  H20 HET A   1)    1.09026231  *  119.5167935  * -179.4149082  *    24    21    12
    47       H(HETATM   47  H21 HET A   1)    1.09409936  *  119.5039086  *  179.1676859  *    25    24    21
    48       H(HETATM   48  H1  HET A   1)    1.04551888  *  169.0583003  * -151.6957567  *     3     1     2

                             CARTESIAN COORDINATES

   1    O        0.353617519     0.082978370     0.158893480
   2    O        4.925647487     0.082978370     0.158893480
   3    N        0.100185264     4.975448027     0.158893480
   4    N        3.525482030     1.818147369    -0.242659776
   5    C        2.308192243     3.909841836    -0.067287938
   6    C        2.154153965     2.347847142    -0.016282437
   7    C        1.422440264     4.693696690     0.923694523
   8    C        1.675267609     1.769839987     1.328772427
   9    C        0.518700455     2.590234068     1.905531706
  10    C        1.121234378     3.972818982     2.227591958
  11    C        1.851820782     4.438675862    -1.446253354
  12    C        3.784461556     4.107661838     0.093261086
  13    C        0.347907346     4.644878774    -1.312382952
  14    C        1.401139061     0.273139218     1.094507431
  15    C       -0.650257526     2.746747879     0.976827836
  16    C       -1.062606737     4.165442450     0.705778021
  17    C        4.454730544     2.869735601    -0.055814772
  18    C        2.592133837    -0.402036489     0.385884659
  19    C        3.788260430     0.478852837     0.120908888
  20    C       -1.336772018     1.729835603     0.446547498
  21    C        4.506245705     5.272913034     0.280106346
  22    C       -0.955550917     0.295471046     0.640711031
  23    C        5.842820199     2.790594600    -0.034792618
  24    C        5.900506826     5.196725398     0.323372211
  25    C        6.554466593     3.974672663     0.159882798
  26    H        1.487799929     1.989775543    -0.842419549
  27    H        1.895116162     5.691599793     1.128954327
  28    H        2.519370611     1.828558673     2.073973805
  29    H        0.160444562     2.105188150     2.852812599
  30    H        0.460289175     4.560835966     2.891856154
  31    H        2.062427314     3.861885511     2.815551084
  32    H        2.115465279     3.730948784    -2.259944158
  33    H        2.389236543     5.372115693    -1.709426610
  34    H       -0.035557733     5.465814482    -1.953191421
  35    H       -0.202833911     3.717296685    -1.592898701
  36    H        1.148504549    -0.240217586     2.048556643
  37    H       -1.912464446     4.227822876    -0.015224210
  38    H       -1.425867733     4.642857184     1.650517506
  39    H        2.243036471    -0.825085312    -0.592845926
  40    H        2.928536247    -1.294221712     0.963049843
  41    H       -2.213268991     1.887158850    -0.184974083
  42    H        4.009875261     6.233310034     0.387258879
  43    H       -1.074663168    -0.029956698     1.692674573
  44    H       -1.548177545    -0.390855773    -0.005789364
  45    H        6.355859498     1.833412458    -0.164277406
  46    H        6.483484392     6.104701461     0.479540519
  47    H        7.647789948     3.941174255     0.183868271
  48    H       -0.127407177     5.991547142     0.252989226


           Empirical Formula: C21 H23 N2 O2  =    48 atoms



      MOLECULAR POINT GROUP   :   C1  


                  EIGENVALUES  
 -42.21354 -39.87626 -34.46545 -33.92430 -33.09869 -32.75842 -32.64216 -31.64140
 -30.77560 -29.34340 -28.94277 -28.78266 -28.07796 -27.58180 -26.42378 -25.68887
 -25.50245 -25.02651 -24.39632 -24.07870 -23.13039 -22.90001 -22.54594 -21.69955
 -21.32729 -21.01920 -20.47108 -20.26736 -19.99066 -19.56023 -19.37928 -19.29075
 -19.10115 -18.60178 -18.29968 -18.15303 -17.90493 -17.77056 -17.64819 -17.53238
 -17.31808 -17.30015 -17.18649 -16.93143 -16.83683 -16.72589 -16.35701 -16.23946
 -16.04606 -15.97930 -15.85090 -15.56961 -15.26102 -15.12021 -15.06155 -14.85926
 -14.74415 -14.57404 -13.78276 -13.46938 -13.23191 -13.05056 -12.51284 -11.37601
  -3.62506  -2.85043  -2.69685  -2.41551  -1.65762  -1.57355  -1.49276  -1.07488
  -0.86512  -0.79753  -0.61929  -0.49864  -0.38807  -0.17319  -0.11360  -0.07670
   0.03964   0.16736   0.21006   0.32280   0.55175   0.58121   0.67230   0.74580
   0.85125   0.95158   1.07316   1.13181   1.17006   1.30122   1.37141   1.42698
   1.50742   1.62912   1.67282   1.87070   2.00531   2.03813   2.18573   2.23850
   2.27382   2.30360   2.32942   2.36575   2.46549   2.47474   2.55403   2.58068
   2.66097   2.67226   2.82069   2.86653   2.94028   3.14987   3.34734   3.44793
   3.62062   3.79458   4.04704


              NET ATOMIC CHARGES AND DIPOLE CONTRIBUTIONS

  ATOM NO.                 TYPE                        CHARGE      No. of ELECS.   s-Pop       p-Pop       
    1          O(HETATM    1  O1  HET A   1)          -0.386022        6.3860     1.87963     4.50639
    2          O(HETATM    2  O2  HET A   1)          -0.439279        6.4393     1.87930     4.55997
    3          N(HETATM    3  N1  HET A   1)          -0.142317        5.1423     1.54406     3.59825
    4          N(HETATM    4  N2  HET A   1)          -0.495869        5.4959     1.61013     3.88574
    5          C(HETATM    5  C1  HET A   1)          -0.000601        4.0006     1.07327     2.92733
    6          C(HETATM    6  C2  HET A   1)           0.052331        3.9477     1.09124     2.85643
    7          C(HETATM    7  C3  HET A   1)           0.005470        3.9945     1.10537     2.88916
    8          C(HETATM    8  C4  HET A   1)          -0.230914        4.2309     1.08218     3.14874
    9          C(HETATM    9  C5  HET A   1)          -0.097450        4.0975     1.05767     3.03978
   10          C(HETATM   10  C6  HET A   1)          -0.326295        4.3263     1.06848     3.25782
   11          C(HETATM   11  C7  HET A   1)          -0.311880        4.3119     1.07367     3.23821
   12          C(HETATM   12  C8  HET A   1)          -0.178194        4.1782     1.06142     3.11677
   13          C(HETATM   13  C9  HET A   1)          -0.160659        4.1607     1.09395     3.06671
   14          C(HETATM   14  C10 HET A   1)           0.119846        3.8802     1.09468     2.78547
   15          C(HETATM   15  C11 HET A   1)          -0.084334        4.0843     1.07194     3.01240
   16          C(HETATM   16  C12 HET A   1)          -0.169341        4.1693     1.08637     3.08297
   17          C(HETATM   17  C13 HET A   1)           0.213050        3.7869     1.06267     2.72428
   18          C(HETATM   18  C14 HET A   1)          -0.397121        4.3971     1.07764     3.31948
   19          C(HETATM   19  C15 HET A   1)           0.586210        3.4138     1.09173     2.32206
   20          C(HETATM   20  C16 HET A   1)          -0.150119        4.1501     1.10700     3.04311
   21          C(HETATM   21  C17 HET A   1)          -0.110078        4.1101     1.07894     3.03114
   22          C(HETATM   22  C18 HET A   1)          -0.046609        4.0466     1.08248     2.96413
   23          C(HETATM   23  C19 HET A   1)          -0.191378        4.1914     1.08514     3.10624
   24          C(HETATM   24  C20 HET A   1)          -0.179132        4.1791     1.08132     3.09782
   25          C(HETATM   25  C21 HET A   1)          -0.072883        4.0729     1.09092     2.98196
   26          H(HETATM   26  H2  HET A   1)           0.176742        0.8233     0.82326
   27          H(HETATM   27  H3  HET A   1)           0.172323        0.8277     0.82768
   28          H(HETATM   28  H4  HET A   1)           0.175836        0.8242     0.82416
   29          H(HETATM   29  H5  HET A   1)           0.174942        0.8251     0.82506
   30          H(HETATM   30 1H6  HET A   1)           0.166129        0.8339     0.83387
   31          H(HETATM   31 2H6  HET A   1)           0.193072        0.8069     0.80693
   32          H(HETATM   32 1H7  HET A   1)           0.199262        0.8007     0.80074
   33          H(HETATM   33 2H7  HET A   1)           0.183139        0.8169     0.81686
   34          H(HETATM   34 1H9  HET A   1)           0.177146        0.8229     0.82285
   35          H(HETATM   35 2H9  HET A   1)           0.183534        0.8165     0.81647
   36          H(HETATM   36  H10 HET A   1)           0.140990        0.8590     0.85901
   37          H(HETATM   37 1H12 HET A   1)           0.177882        0.8221     0.82212
   38          H(HETATM   38 2H12 HET A   1)           0.183505        0.8165     0.81650
   39          H(HETATM   39 1H14 HET A   1)           0.216307        0.7837     0.78369
   40          H(HETATM   40 2H14 HET A   1)           0.205243        0.7948     0.79476
   41          H(HETATM   41  H16 HET A   1)           0.162193        0.8378     0.83781
   42          H(HETATM   42  H17 HET A   1)           0.143950        0.8560     0.85605
   43          H(HETATM   43 1H18 HET A   1)           0.146985        0.8530     0.85301
   44          H(HETATM   44 2H18 HET A   1)           0.169816        0.8302     0.83018
   45          H(HETATM   45  H19 HET A   1)           0.207480        0.7925     0.79252
   46          H(HETATM   46  H20 HET A   1)           0.169330        0.8307     0.83067
   47          H(HETATM   47  H21 HET A   1)           0.172717        0.8273     0.82728
   48          H(HETATM   48  H1  HET A   1)           0.295042        0.7050     0.70496
 DIPOLE           X         Y         Z       TOTAL
 POINT-CHG.   -10.016     7.172     1.467    12.406
 HYBRID        -0.799     1.153    -0.107     1.406
 SUM          -10.815     8.325     1.360    13.715


          ATOMIC ORBITAL ELECTRON POPULATIONS

                   Atom                  s        px        py        pz   
   O(HETATM    1  O1  HET A   1)   1.87963   1.20374   1.89288   1.40976
   O(HETATM    2  O2  HET A   1)   1.87930   1.30420   1.76083   1.49494
   N(HETATM    3  N1  HET A   1)   1.54406   1.19424   1.21392   1.19009
   N(HETATM    4  N2  HET A   1)   1.61013   1.10815   1.13666   1.64093
   C(HETATM    5  C1  HET A   1)   1.07327   0.99272   0.99064   0.94397
   C(HETATM    6  C2  HET A   1)   1.09124   0.87998   0.93200   1.04445
   C(HETATM    7  C3  HET A   1)   1.10537   0.81898   1.10610   0.96408
   C(HETATM    8  C4  HET A   1)   1.08218   1.06712   1.02920   1.05242
   C(HETATM    9  C5  HET A   1)   1.05767   0.97617   0.99201   1.07160
   C(HETATM   10  C6  HET A   1)   1.06848   1.18142   1.05143   1.02497
   C(HETATM   11  C7  HET A   1)   1.07367   0.96402   1.19984   1.07434
   C(HETATM   12  C8  HET A   1)   1.06142   0.94292   1.01625   1.15760
   C(HETATM   13  C9  HET A   1)   1.09395   1.08045   1.18233   0.80392
   C(HETATM   14  C10 HET A   1)   1.09468   0.86430   0.94801   0.97316
   C(HETATM   15  C11 HET A   1)   1.07194   1.02820   0.93863   1.04557
   C(HETATM   16  C12 HET A   1)   1.08637   0.92267   1.01595   1.14436
   C(HETATM   17  C13 HET A   1)   1.06267   0.93245   0.85436   0.93746
   C(HETATM   18  C14 HET A   1)   1.07764   1.02281   1.10562   1.19105
   C(HETATM   19  C15 HET A   1)   1.09173   0.84986   0.77145   0.70075
   C(HETATM   20  C16 HET A   1)   1.10700   1.03417   1.02077   0.98817
   C(HETATM   21  C17 HET A   1)   1.07894   1.01613   1.03169   0.98332
   C(HETATM   22  C18 HET A   1)   1.08248   0.85392   0.98190   1.12831
   C(HETATM   23  C19 HET A   1)   1.08514   0.97736   1.08925   1.03963
   C(HETATM   24  C20 HET A   1)   1.08132   0.99654   1.06607   1.03521
   C(HETATM   25  C21 HET A   1)   1.09092   1.08726   0.96690   0.92780
   H(HETATM   26  H2  HET A   1)   0.82326
   H(HETATM   27  H3  HET A   1)   0.82768
   H(HETATM   28  H4  HET A   1)   0.82416
   H(HETATM   29  H5  HET A   1)   0.82506
   H(HETATM   30 1H6  HET A   1)   0.83387
   H(HETATM   31 2H6  HET A   1)   0.80693
   H(HETATM   32 1H7  HET A   1)   0.80074
   H(HETATM   33 2H7  HET A   1)   0.81686
   H(HETATM   34 1H9  HET A   1)   0.82285
   H(HETATM   35 2H9  HET A   1)   0.81647
   H(HETATM   36  H10 HET A   1)   0.85901
   H(HETATM   37 1H12 HET A   1)   0.82212
   H(HETATM   38 2H12 HET A   1)   0.81650
   H(HETATM   39 1H14 HET A   1)   0.78369
   H(HETATM   40 2H14 HET A   1)   0.79476
   H(HETATM   41  H16 HET A   1)   0.83781
   H(HETATM   42  H17 HET A   1)   0.85605
   H(HETATM   43 1H18 HET A   1)   0.85301
   H(HETATM   44 2H18 HET A   1)   0.83018
   H(HETATM   45  H19 HET A   1)   0.79252
   H(HETATM   46  H20 HET A   1)   0.83067
   H(HETATM   47  H21 HET A   1)   0.82728
   H(HETATM   48  H1  HET A   1)   0.70496

           DATA FOR GRAPH WRITTEN TO DISK

 **********************
 *                    *
 * JOB ENDED NORMALLY *
 *                    *
 **********************



 TOTAL JOB TIME:             4.83 SECONDS

 == MOPAC DONE ==
