 *******************************************************************************
 **                                                                           **
 **                              MOPAC v22.0.6                                **
 **                                                                           **
 *******************************************************************************
 **          Digital Object Identifier (DOI): 10.5281/zenodo.6511958          **
 **    Visit the DOI location for information on how to cite this program.    **
 *******************************************************************************

                              PM7 CALCULATION RESULTS

 *******************************************************************************
 *  CALCULATION DONE:                                Sun Oct 12 20:23:39 2025  *
 *  PM7        - The PM7 Hamiltonian to be used
 *  PDBOUT     - PRINT GEOMETRY IN PDB FORMAT
 *  RESIDUES   - DETERMINE THE SEQUENCE OF RESIDUES
 *
 *
 *
 *                 CHARGE ON SYSTEM = 0
 *
 *
 *
 *  EF         - USE EF ROUTINE FOR MINIMUM SEARCH
 *  T=         - A TIME OF 172800.0 SECONDS REQUESTED
 *  DUMP=N     - RESTART FILE WRITTEN EVERY 7200.0 SECONDS REQUESTED
 *  NOXYZ      - CARTESIAN COORDINATES NOT TO BE PRINTED
 *  PRNT       - EXTRA PRINTING IN EF ROUTINE
 *  GRAPH      - GENERATE FILE FOR GRAPHICS
 *  COMPFG     - PRINT HEAT OF FORMATION CALC'D IN COMPFG
 *******************************************************************************
PM7 CHARGE=0 EF NOXYZ PRNT=2 PDBOUT COMPFG GRAPHF
 6436805

  ATOM    CHEMICAL      BOND LENGTH      BOND ANGLE     TWIST ANGLE 
 NUMBER    SYMBOL       (ANGSTROMS)      (DEGREES)       (DEGREES) 
   (I)                     NA:I           NB:NA:I       NC:NB:NA:I       NA    NB    NC 
     1       O          0.00000000  *    0.0000000  *    0.0000000  *     0     0     0
     2       O          7.43404200  *    0.0000000  *    0.0000000  *     1     0     0
     3       O          2.30716400  *  138.7658830  *    0.0000000  *     2     1     0
     4       C          1.42521900  *   82.2579740  *  120.4563360  *     1     2     3
     5       C          1.42409300  *   24.5436520  *  159.0826540  *     1     2     3
     6       C          1.52652600  *  113.6597220  *  -96.0477880  *     4     1     2
     7       C          1.52508400  *  114.4146630  *  109.9084220  *     5     1     2
     8       C          1.52442200  *  114.5952200  *  129.4101210  *     4     1     2
     9       C          1.54344800  *  113.5484180  *  153.1173430  *     6     4     1
    10       C          1.54482400  *  113.4941060  * -130.5724550  *     7     5     1
    11       C          1.51934500  *  113.0445130  *  -63.7895360  *    10     7     5
    12       C          1.51741400  *  112.2556310  *  -70.8979580  *     9     6     4
    13       C          1.44839400  *   27.7301780  * -101.1113250  *     2     1     3
    14       C          1.48634800  *  114.7240450  *  121.9287990  *    11    10     7
    15       C          1.48770500  *  121.6321170  *  -96.2736300  *    12     9     6
    16       C          1.49959100  *  100.2074700  *  105.5366910  *    13     2     1
    17       C          1.51709000  *  109.2053240  *  174.3289240  *    15    12     9
    18       C          1.51804900  *  119.6304570  * -173.8371610  *    16    13     2
    19       C          1.51558200  *  117.2691690  *  -60.1267150  *    11    10     7
    20       C          1.31963300  *  110.5548430  *    3.5509610  *    16    13     2
    21       C          1.51417900  *  134.1735640  *   -1.8720460  *    15    12     9
    22       C          1.21426200  *   27.7569860  *  -43.6984240  *     3     2     1
    23       C          1.51658000  *  128.2594170  *  179.9893850  *    20    16    13
    24       H          1.08724600  *  114.0355400  *  -25.6346730  *     5     1     2
    25       H          1.09325400  *  109.9837680  *   30.6035120  *     6     4     1
    26       H          1.09293700  *  108.9860430  *  -85.5130030  *     6     4     1
    27       H          1.09174800  *  109.8482790  *  106.7649910  *     7     5     1
    28       H          1.09316600  *  109.1845500  *   -9.7089490  *     7     5     1
    29       H          1.09226400  *  111.2220240  *  103.0173950  *     8     4     1
    30       H          1.09232400  *  110.3026630  * -136.9831980  *     8     4     1
    31       H          1.09237300  *  111.1296580  *  -16.9901690  *     8     4     1
    32       H          1.09176600  *  108.9235370  *  167.7024420  *     9     6     4
    33       H          1.09247400  *  109.9628290  *   51.5324830  *     9     6     4
    34       H          1.09280300  *  108.7634240  *  174.9405290  *    10     7     5
    35       H          1.09306200  *  108.7215070  *   59.5216010  *    10     7     5
    36       H          1.08743900  *  105.0511770  *   81.5042230  *    12     9     6
    37       H          1.09262100  *  108.8409710  * -138.4943200  *    13     2     1
    38       H          1.08802500  *  128.8171180  *    0.2011660  *    14    11    10
    39       H          1.09306500  *  110.0876760  *   28.5952780  *    17    15    12
    40       H          1.09297600  *  110.3274780  *  145.6368400  *    17    15    12
    41       H          1.09233400  *  108.9758020  *   47.8006940  *    18    16    13
    42       H          1.09082700  *  111.1226360  *  164.1918570  *    18    16    13
    43       H          1.09192600  *  110.7866280  * -142.9550930  *    19    11    10
    44       H          1.09158700  *  110.6545390  *   96.9519420  *    19    11    10
    45       H          1.09245000  *  111.2661940  *  -23.4211730  *    19    11    10
    46       H          1.09213100  *  111.0300090  *  129.4217110  *    21    15    12
    47       H          1.09146700  *  111.0826420  *    9.5703600  *    21    15    12
    48       H          1.09212000  *  110.5291020  * -110.4515760  *    21    15    12
    49       H          1.09021000  *  112.3717050  *   -3.1906700  *    23    20    16
    50       H          1.09219900  *  110.2050210  * -123.3029540  *    23    20    16
    51       H          1.09215700  *  110.3217730  *  117.5151800  *    23    20    16


 General Reference for PM7:
 "Optimization of Parameters for Semiempirical Methods VI: More Modifications to the 
 NDDO Approximations and Re-optimization of Parameters", J. J. P. Stewart, J. Mol. Mod., 1:32, 19 (2013)
 https://link.springer.com/article/10.1007/s00894-012-1667-x

           Empirical Formula: C20 H28 O3  =    51 atoms



      MOLECULAR POINT GROUP   :   C1  


      RHF CALCULATION, NO. OF DOUBLY OCCUPIED LEVELS = 63


          Geometry optimization using EF

  HEAT OF FORMATION       -52.605119404615834    
 PARAMETERS        0.000   0.000   0.000   7.434   0.000   0.000   2.307   2.422
   0.000   1.425   1.436   2.102   1.424   0.428   2.777   1.527   1.984   4.607

   1.525   1.997   1.918   1.524   2.000   2.259   1.543   1.982   2.672   1.545

   1.981   4.004   1.519   1.973   5.170   1.517   1.959   5.046   1.448   0.484

   4.518   1.486   2.002   2.128   1.488   2.123   4.603   1.500   1.749   1.842

   1.517   1.906   3.043   1.518   2.088   3.249   1.516   2.047   5.234   1.320

   1.930   0.062   1.514   2.342   6.251   1.214   0.484   5.521   1.517   2.239

   3.141   1.087   1.990   5.836   1.093   1.920   0.534   1.093   1.902   4.791

   1.092   1.917   1.863   1.093   1.906   6.114   1.092   1.941   1.798   1.092

   1.925   3.892   1.092   1.940   5.987   1.092   1.901   2.927   1.092   1.919

   0.899   1.093   1.898   3.053   1.093   1.898   1.039   1.087   1.833   1.423

   1.093   1.900   3.866   1.088   2.248   0.004   1.093   1.921   0.499   1.093

   1.926   2.542   1.092   1.902   0.834   1.091   1.939   2.866   1.092   1.934

   3.788   1.092   1.931   1.692   1.092   1.942   5.874   1.092   1.938   2.259

   1.091   1.939   0.167   1.092   1.929   4.355   1.090   1.961   6.227   1.092

   1.923   4.131   1.092   1.925   2.051
 GRADIENT         -0.000   0.000   0.000  32.063   0.000   0.000 -29.649 -95.696
   0.000  -1.751  23.238 -12.919 -23.203  56.544  16.840  15.531  -6.549 -35.808

  26.466 -84.565  32.179  13.206  -0.346   3.334   2.034  20.059  -7.442 -13.376

  47.973   8.908  -5.885   3.290 -15.544   6.227   0.771 -19.672-109.743  74.874

  62.133 150.368 -29.233   1.490 179.006 -28.289  -0.636 -98.909-241.930  10.943

   2.636 -13.541 -10.028  20.052  -1.253  -6.275  34.812 -14.062  -2.603 -11.511

-110.806  -9.845  39.195  21.095   1.549  77.420  17.989  -5.208  27.697  -3.327

   0.194  -4.361  -1.099   0.177  -9.585   1.199   1.006  -9.412   0.387  -2.067

  -9.403   0.712   1.028 -10.619   1.677  -1.585  -2.274  -0.869   0.710  -2.434

  -1.075   0.304  -3.092   0.033  -0.611 -10.254   0.676   2.082  -8.856   0.022

  -0.717 -10.275  -1.468   0.623  -9.885  -1.429  -0.595  10.782 -34.549   0.921

 -11.241   9.300  -3.880  11.399  21.578  -2.879  -8.638  -1.459  -1.388  -9.241

  -0.992   1.559 -12.069   0.851  -0.452 -10.108   2.010   1.097  -4.393  -1.197

   0.402  -3.876  -0.294   0.181  -2.466  -0.280  -0.546  -2.841   1.036  -0.476

  -3.866  -1.414   0.492  -3.177   0.373   0.097  -2.934   0.967  -0.254  -4.764

  -0.247   1.612  -4.685  -0.008  -1.312

          DIAGONAL MATRIX USED AS START HESSIAN

*REMARK   3 HET = Not identified; C 20 H 28 O 3      =    51 atoms res:    1
 PM7 CHARGE=0 EF NOXYZ PRNT=2 PDBOUT COMPFG GRAPHF
 6436805

  O(HETATM    1  O1  HET A   1)   0.00000000 +1    0.0000000 +1    0.0000000 +1
  O(HETATM    2  O2  HET A   1)   7.43404200 +1    0.0000000 +1    0.0000000 +1     1     0     0
  O(HETATM    3  O3  HET A   1)   2.30716400 +1  138.7658830 +1    0.0000000 +1     2     1     0
  C(HETATM    4  C1  HET A   1)   1.42521900 +1   82.2579740 +1  120.4563360 +1     1     2     3
  C(HETATM    5  C2  HET A   1)   1.42409300 +1   24.5436520 +1  159.0826540 +1     1     2     3
  C(HETATM    6  C3  HET A   1)   1.52652600 +1  113.6597220 +1  -96.0477880 +1     4     1     2
  C(HETATM    7  C4  HET A   1)   1.52508400 +1  114.4146630 +1  109.9084220 +1     5     1     2
  C(HETATM    8  C5  HET A   1)   1.52442200 +1  114.5952200 +1  129.4101210 +1     4     1     2
  C(HETATM    9  C6  HET A   1)   1.54344800 +1  113.5484180 +1  153.1173430 +1     6     4     1
  C(HETATM   10  C7  HET A   1)   1.54482400 +1  113.4941060 +1 -130.5724550 +1     7     5     1
  C(HETATM   11  C8  HET A   1)   1.51934500 +1  113.0445130 +1  -63.7895360 +1    10     7     5
  C(HETATM   12  C9  HET A   1)   1.51741400 +1  112.2556310 +1  -70.8979580 +1     9     6     4
  C(HETATM   13  C10 HET A   1)   1.44839400 +1   27.7301780 +1 -101.1113250 +1     2     1     3
  C(HETATM   14  C11 HET A   1)   1.48634800 +1  114.7240450 +1  121.9287990 +1    11    10     7
  C(HETATM   15  C12 HET A   1)   1.48770500 +1  121.6321170 +1  -96.2736300 +1    12     9     6
  C(HETATM   16  C13 HET A   1)   1.49959100 +1  100.2074700 +1  105.5366910 +1    13     2     1
  C(HETATM   17  C14 HET A   1)   1.51709000 +1  109.2053240 +1  174.3289240 +1    15    12     9
  C(HETATM   18  C15 HET A   1)   1.51804900 +1  119.6304570 +1 -173.8371610 +1    16    13     2
  C(HETATM   19  C16 HET A   1)   1.51558200 +1  117.2691690 +1  -60.1267150 +1    11    10     7
  C(HETATM   20  C17 HET A   1)   1.31963300 +1  110.5548430 +1    3.5509610 +1    16    13     2
  C(HETATM   21  C18 HET A   1)   1.51417900 +1  134.1735640 +1   -1.8720460 +1    15    12     9
  C(HETATM   22  C19 HET A   1)   1.21426200 +1   27.7569860 +1  -43.6984240 +1     3     2     1
  C(HETATM   23  C20 HET A   1)   1.51658000 +1  128.2594170 +1  179.9893850 +1    20    16    13
  H(HETATM   24  H2  HET A   1)   1.08724600 +1  114.0355400 +1  -25.6346730 +1     5     1     2
  H(HETATM   25 1H3  HET A   1)   1.09325400 +1  109.9837680 +1   30.6035120 +1     6     4     1
  H(HETATM   26 2H3  HET A   1)   1.09293700 +1  108.9860430 +1  -85.5130030 +1     6     4     1
  H(HETATM   27 1H4  HET A   1)   1.09174800 +1  109.8482790 +1  106.7649910 +1     7     5     1
  H(HETATM   28 2H4  HET A   1)   1.09316600 +1  109.1845500 +1   -9.7089490 +1     7     5     1
  H(HETATM   29 1H5  HET A   1)   1.09226400 +1  111.2220240 +1  103.0173950 +1     8     4     1
  H(HETATM   30 2H5  HET A   1)   1.09232400 +1  110.3026630 +1 -136.9831980 +1     8     4     1
  H(HETATM   31 3H5  HET A   1)   1.09237300 +1  111.1296580 +1  -16.9901690 +1     8     4     1
  H(HETATM   32 1H6  HET A   1)   1.09176600 +1  108.9235370 +1  167.7024420 +1     9     6     4
  H(HETATM   33 2H6  HET A   1)   1.09247400 +1  109.9628290 +1   51.5324830 +1     9     6     4
  H(HETATM   34 1H7  HET A   1)   1.09280300 +1  108.7634240 +1  174.9405290 +1    10     7     5
  H(HETATM   35 2H7  HET A   1)   1.09306200 +1  108.7215070 +1   59.5216010 +1    10     7     5
  H(HETATM   36  H9  HET A   1)   1.08743900 +1  105.0511770 +1   81.5042230 +1    12     9     6
  H(HETATM   37  H10 HET A   1)   1.09262100 +1  108.8409710 +1 -138.4943200 +1    13     2     1
  H(HETATM   38  H11 HET A   1)   1.08802500 +1  128.8171180 +1    0.2011660 +1    14    11    10
  H(HETATM   39 1H14 HET A   1)   1.09306500 +1  110.0876760 +1   28.5952780 +1    17    15    12
  H(HETATM   40 2H14 HET A   1)   1.09297600 +1  110.3274780 +1  145.6368400 +1    17    15    12
  H(HETATM   41 1H15 HET A   1)   1.09233400 +1  108.9758020 +1   47.8006940 +1    18    16    13
  H(HETATM   42 2H15 HET A   1)   1.09082700 +1  111.1226360 +1  164.1918570 +1    18    16    13
  H(HETATM   43 1H16 HET A   1)   1.09192600 +1  110.7866280 +1 -142.9550930 +1    19    11    10
  H(HETATM   44 2H16 HET A   1)   1.09158700 +1  110.6545390 +1   96.9519420 +1    19    11    10
  H(HETATM   45 3H16 HET A   1)   1.09245000 +1  111.2661940 +1  -23.4211730 +1    19    11    10
  H(HETATM   46 1H18 HET A   1)   1.09213100 +1  111.0300090 +1  129.4217110 +1    21    15    12
  H(HETATM   47 2H18 HET A   1)   1.09146700 +1  111.0826420 +1    9.5703600 +1    21    15    12
  H(HETATM   48 3H18 HET A   1)   1.09212000 +1  110.5291020 +1 -110.4515760 +1    21    15    12
  H(HETATM   49 1H20 HET A   1)   1.09021000 +1  112.3717050 +1   -3.1906700 +1    23    20    16
  H(HETATM   50 2H20 HET A   1)   1.09219900 +1  110.2050210 +1 -123.3029540 +1    23    20    16
  H(HETATM   51 3H20 HET A   1)   1.09215700 +1  110.3217730 +1  117.5151800 +1    23    20    16

 XPARAM 
  1  1    0.0000  1  2    0.0000  1  3    0.0000  2  1    7.4340  2  2    0.0000
  2  3    0.0000  3  1    2.3072  3  2    2.4219  3  3    0.0000  4  1    1.4252
  4  2    1.4357  4  3    2.1024  5  1    1.4241  5  2    0.4284  5  3    2.7765
  6  1    1.5265  6  2    1.9837  6  3    4.6068  7  1    1.5251  7  2    1.9969
  7  3    1.9183  8  1    1.5244  8  2    2.0001  8  3    2.2586  9  1    1.5434
  9  2    1.9818  9  3    2.6724 10  1    1.5448 10  2    1.9808 10  3    4.0043
 11  1    1.5193 11  2    1.9730 11  3    5.1698 12  1    1.5174 12  2    1.9592
 12  3    5.0458 13  1    1.4484 13  2    0.4840 13  3    4.5185 14  1    1.4863
 14  2    2.0023 14  3    2.1281 15  1    1.4877 15  2    2.1229 15  3    4.6029
 16  1    1.4996 16  2    1.7490 16  3    1.8420 17  1    1.5171 17  2    1.9060
 17  3    3.0426 18  1    1.5180 18  2    2.0879 18  3    3.2492 19  1    1.5156
 19  2    2.0467 19  3    5.2338 20  1    1.3196 20  2    1.9295 20  3    0.0620
 21  1    1.5142 21  2    2.3418 21  3    6.2505 22  1    1.2143 22  2    0.4845
 22  3    5.5205 23  1    1.5166 23  2    2.2385 23  3    3.1414 24  1    1.0872
 24  2    1.9903 24  3    5.8358 25  1    1.0933 25  2    1.9196 25  3    0.5341
 26  1    1.0929 26  2    1.9022 26  3    4.7907 27  1    1.0917 27  2    1.9172
 27  3    1.8634 28  1    1.0932 28  2    1.9056 28  3    6.1137 29  1    1.0923
 29  2    1.9412 29  3    1.7980 30  1    1.0923 30  2    1.9251 30  3    3.8924
 31  1    1.0924 31  2    1.9396 31  3    5.9867 32  1    1.0918 32  2    1.9011
 32  3    2.9270 33  1    1.0925 33  2    1.9192 33  3    0.8994 34  1    1.0928
 34  2    1.8983 34  3    3.0533 35  1    1.0931 35  2    1.8975 35  3    1.0388
 36  1    1.0874 36  2    1.8335 36  3    1.4225 37  1    1.0926 37  2    1.8996
 37  3    3.8660 38  1    1.0880 38  2    2.2483 38  3    0.0035 39  1    1.0931
 39  2    1.9214 39  3    0.4991 40  1    1.0930 40  2    1.9256 40  3    2.5418
 41  1    1.0923 41  2    1.9020 41  3    0.8343 42  1    1.0908 42  2    1.9395
 42  3    2.8657 43  1    1.0919 43  2    1.9336 43  3    3.7881 44  1    1.0916
 44  2    1.9313 44  3    1.6921 45  1    1.0924 45  2    1.9420 45  3    5.8744
 46  1    1.0921 46  2    1.9378 46  3    2.2588 47  1    1.0915 47  2    1.9388
 47  3    0.1670 48  1    1.0921 48  2    1.9291 48  3    4.3554 49  1    1.0902
 49  2    1.9613 49  3    6.2275 50  1    1.0922 50  2    1.9234 50  3    4.1311
 51  1    1.0922 51  2    1.9255 51  3    2.0510
 grad
      -0.00000    0.00000    0.00000   32.06309    0.00000    0.00000  -29.64901  -95.69585
       0.00000   -1.75124   23.23832  -12.91913  -23.20323   56.54429   16.84033   15.53131
      -6.54859  -35.80758   26.46583  -84.56507   32.17856   13.20614   -0.34562    3.33435
       2.03444   20.05894   -7.44161  -13.37581   47.97264    8.90826   -5.88488    3.29018
     -15.54440    6.22749    0.77111  -19.67238 -109.74282   74.87365   62.13324  150.36798
     -29.23292    1.49045  179.00649  -28.28871   -0.63643  -98.90909 -241.93006   10.94327
       2.63630  -13.54102  -10.02817   20.05162   -1.25331   -6.27499   34.81216  -14.06200
      -2.60285  -11.51119 -110.80573   -9.84487   39.19522   21.09532    1.54914   77.42038
      17.98853   -5.20833   27.69665   -3.32663    0.19439   -4.36092   -1.09903    0.17722
      -9.58502    1.19945    1.00559   -9.41152    0.38693   -2.06661   -9.40253    0.71170
       1.02813  -10.61949    1.67699   -1.58546   -2.27421   -0.86860    0.71020   -2.43429
      -1.07489    0.30410   -3.09153    0.03301   -0.61096  -10.25445    0.67564    2.08203
      -8.85645    0.02242   -0.71655  -10.27510   -1.46841    0.62260   -9.88460   -1.42936
      -0.59481   10.78167  -34.54876    0.92099  -11.24149    9.29991   -3.87985   11.39866
      21.57835   -2.87948   -8.63826   -1.45935   -1.38825   -9.24150   -0.99160    1.55915
     -12.06925    0.85082   -0.45211  -10.10828    2.01012    1.09739   -4.39312   -1.19746
       0.40175   -3.87613   -0.29433    0.18059   -2.46620   -0.28016   -0.54649   -2.84087
       1.03636   -0.47604   -3.86601   -1.41356    0.49157   -3.17739    0.37274    0.09748
      -2.93354    0.96700   -0.25369   -4.76409   -0.24665    1.61220   -4.68474   -0.00799
      -1.31181
 CYCLE:     1 TIME:   0.039 TIME LEFT:  2.00D  GRAD.:   451.359 HEAT: -52.60512

          HESSIAN HAS  0 NEGATIVE EIGENVALUE(S)
  MIN SEARCH, CORRECT HESSIAN, TRYING PURE NR STEP
 LAMBDA THAT MINIMIZES ALONG ALL MODES =        0.000000000
 PURE NR-STEP HAS LENGTH   0.77686
 LAMBDA THAT MINIMIZES ALONG ALL MODES =     -207.766448814
 P-RFO-STEP   HAS LENGTH   0.51988
 LAMBDA THAT MINIMIZES ALONG ALL MODES =    -1426.509304520
 QA/TRIM-STEP HAS LENGTH   0.20000

  HEAT OF FORMATION       -10.932973836621386    
 PARAMETERS        0.001  -0.032   0.019   7.422  -0.022  -0.003   2.318   2.443
  -0.008   1.429   1.411   2.113   1.439   0.390   2.776   1.527   1.990   4.627

   1.517   2.027   1.896   1.522   1.988   2.255   1.546   1.962   2.675   1.556

   1.955   3.997   1.530   1.978   5.178   1.523   1.964   5.056   1.502   0.447

   4.490   1.427   2.005   2.125   1.421   2.140   4.600   1.543   1.860   1.835

   1.520   1.906   3.047   1.514   2.083   3.250   1.509   2.061   5.233   1.324

   1.961   0.067   1.508   2.344   6.245   1.192   0.483   5.534   1.510   2.234

   3.138   1.092   1.994   5.835   1.097   1.912   0.533   1.099   1.903   4.792

   1.096   1.913   1.863   1.100   1.908   6.115   1.094   1.937   1.797   1.095

   1.925   3.892   1.096   1.943   5.987   1.097   1.898   2.926   1.096   1.913

   0.900   1.098   1.897   3.053   1.097   1.893   1.039   1.084   1.846   1.422

   1.099   1.894   3.868   1.083   2.229   0.004   1.097   1.915   0.500   1.098

   1.923   2.541   1.098   1.895   0.834   1.096   1.936   2.865   1.095   1.933

   3.788   1.094   1.927   1.692   1.096   1.945   5.875   1.094   1.934   2.259

   1.093   1.932   0.167   1.095   1.929   4.355   1.094   1.964   6.227   1.096

   1.923   4.130   1.095   1.922   2.052
 GRADIENT          0.000   0.000   0.000-174.792   0.000   0.000  71.148 119.934
   0.000-154.784-915.373-388.742 111.742 -57.605 -19.983 -62.997-286.342 215.722

 -74.834 437.724-246.810  14.272  -1.961   4.335 -98.821-111.013-664.667  71.552

-246.364-255.410 187.691-100.800 -39.143 116.055-508.893  93.407 307.607  -8.710

-465.092 182.017 134.226 -43.529 171.260  83.015 149.744  72.025 521.445 195.250

  66.965   1.765-148.822  88.402 -58.081-113.146  22.027  12.599  -1.429 -30.097

 128.056   4.391  25.748  23.555   5.009 -72.556 -61.135  -7.894  41.037 -24.300

  -0.725  -1.665   3.260   4.124  -6.122  -0.844  -0.030  -4.991  -0.583  -1.375

  -5.904  -1.409  -0.043  -5.002  -0.297   0.072  -1.292  -1.064   0.599  -0.814

  -1.361   0.289  -0.552   0.572  -0.438  -5.915  -0.117   1.145  -6.182  -0.458

  -1.170  -5.174  -1.847  -0.649  -6.091  -1.240  -1.064   5.968 -27.573   0.216

  -7.153  22.953   0.204   3.764  10.688   0.224  -8.811  -6.289  -2.376  -6.082

  -8.583  -4.017  -5.067 -11.915  10.283 -13.995   1.201  10.601  -3.470  -5.157

  -2.264  -3.217  -1.248   1.076  -0.603  -0.402  -0.817  -1.821  -2.643  -0.349

  -3.422  -2.775   0.362  -1.335  -0.174  -0.059  -0.081   2.402  -0.213  -2.099

  -0.715   0.978  -2.866  -1.181  -0.652
       HoF         ACTUAL,  PREDICTED ENERGY CHANGE, RATIO
   -10.9329738    41.6721456         -70.3170024   -0.5926326
 UNACCEPTABLE RATIO, REJECTING STEP, REDUCING DMAX TO 0.1000
  MIN SEARCH, CORRECT HESSIAN, TRYING PURE NR STEP
 LAMBDA THAT MINIMIZES ALONG ALL MODES =        0.000000000
 PURE NR-STEP HAS LENGTH   0.77686
 LAMBDA THAT MINIMIZES ALONG ALL MODES =     -207.766448814
 P-RFO-STEP   HAS LENGTH   0.51988
 LAMBDA THAT MINIMIZES ALONG ALL MODES =    -3507.343217384
 QA/TRIM-STEP HAS LENGTH   0.10000

  HEAT OF FORMATION       -59.203169406537199    
 PARAMETERS        0.000  -0.015   0.009   7.427  -0.011  -0.001   2.313   2.432
  -0.004   1.427   1.424   2.107   1.432   0.410   2.776   1.527   1.987   4.616

   1.521   2.011   1.909   1.523   1.994   2.257   1.545   1.972   2.674   1.551

   1.968   4.001   1.525   1.975   5.173   1.520   1.962   5.050   1.477   0.466

   4.506   1.454   2.004   2.127   1.452   2.131   4.602   1.523   1.802   1.839

   1.519   1.906   3.045   1.516   2.086   3.250   1.512   2.054   5.233   1.322

   1.945   0.064   1.511   2.343   6.248   1.203   0.484   5.526   1.513   2.236

   3.140   1.090   1.992   5.836   1.095   1.916   0.534   1.096   1.903   4.791

   1.094   1.915   1.863   1.097   1.907   6.114   1.093   1.939   1.798   1.094

   1.925   3.892   1.095   1.941   5.987   1.095   1.900   2.926   1.095   1.916

   0.900   1.096   1.898   3.053   1.095   1.895   1.039   1.085   1.840   1.422

   1.096   1.897   3.867   1.085   2.239   0.004   1.095   1.919   0.499   1.096

   1.924   2.541   1.095   1.899   0.834   1.094   1.938   2.865   1.094   1.934

   3.788   1.093   1.929   1.692   1.094   1.943   5.875   1.093   1.936   2.259

   1.092   1.936   0.167   1.094   1.929   4.355   1.092   1.963   6.227   1.094

   1.923   4.131   1.094   1.924   2.051
 GRADIENT          0.000   0.000   0.000 -58.030   0.000   0.000  34.653  78.456
   0.000 -71.072-417.781-194.048  29.930 -15.907  -1.107 -21.350-138.078  94.602

 -19.830 139.282 -87.948  13.665  -1.057   3.940 -42.709 -42.287-312.291  19.773

 -89.098 -88.134  70.586 -43.512 -16.088  59.831-238.171  39.020 141.136   9.353

-224.355 165.034  33.202 -22.158 176.082  28.447  70.820  36.239 279.276  90.832

  38.263  -7.243 -77.077  58.201 -34.072 -56.341  29.779  -5.603  -1.837 -39.466

  81.857  -2.200  33.351  21.303   2.447 -31.778 -71.989 -10.279  36.563 -14.879

  -0.205  -2.839   0.988   2.047  -7.768   0.222   0.496  -7.017  -0.093  -1.721

  -7.515  -0.396   0.450  -7.613   0.654  -0.765  -1.742  -0.986   0.656  -1.548

  -1.222   0.285  -1.706   0.295  -0.528  -7.942   0.291   1.653  -7.379  -0.212

  -0.901  -7.534  -1.635   0.023  -7.816  -1.292  -0.751   8.320 -31.153   0.629

  -9.114  15.132  -2.736   7.094  16.962  -1.210  -9.064  -3.787  -2.015  -8.652

  -4.494   0.469  -9.145  -4.779   4.513 -12.695   1.807   6.407  -3.621  -2.419

  -0.410  -3.417  -0.753   0.493  -1.407  -0.383  -0.636  -2.210  -0.388  -0.370

  -3.604  -2.123   0.435  -2.149   0.143   0.065  -1.378   1.746  -0.245  -3.253

  -0.523   1.198  -3.652  -0.668  -0.917
       HoF         ACTUAL,  PREDICTED ENERGY CHANGE, RATIO
   -59.2031694    -6.5980500         -38.5570455    0.1711244
     STEPSIZE USED IS  0.10000
 CALCULATED STEP
     0.000383 -0.015281  0.008554 -0.006731 -0.011116 -0.001458  0.005754  0.009891
    -0.003663  0.002118 -0.012009  0.004554  0.007959 -0.018288 -0.000189  0.000451
     0.003024  0.008824 -0.004561  0.014386 -0.009556 -0.001294 -0.005604 -0.001785
     0.001590 -0.009439  0.001159  0.006287 -0.012389 -0.003250  0.005747  0.002263
     0.003401  0.002947  0.002517  0.004562  0.028807 -0.017598 -0.012616 -0.031851
     0.001192 -0.001251 -0.035882  0.008419 -0.001071  0.023288  0.053413 -0.002990
     0.001844  0.000049  0.002134 -0.001900 -0.002394  0.000528 -0.003252  0.006784
    -0.000325  0.002112  0.015238  0.002239 -0.003376  0.001076 -0.002405 -0.011756
    -0.000495  0.005820 -0.003765 -0.002203 -0.001706  0.002437  0.001689 -0.000147
     0.002131 -0.003515 -0.000306  0.003278  0.000406  0.000539  0.002460 -0.002232
    -0.000309  0.003914  0.001239  0.000406  0.000858 -0.001895 -0.000246  0.001478
    -0.000014 -0.000122  0.002204  0.001539  0.000111  0.002947 -0.001294 -0.000578
     0.002071 -0.002902  0.000159  0.002987 -0.000649 -0.000183  0.002341 -0.002418
     0.000146 -0.002130  0.006181 -0.000200  0.003427 -0.002626  0.001031 -0.002713
    -0.009064  0.000433  0.001911 -0.002882  0.000338  0.002612 -0.001214 -0.000461
     0.002768 -0.003166  0.000104  0.002893 -0.001681 -0.000349  0.001882 -0.000075
    -0.000156  0.001185 -0.002131 -0.000094  0.002034  0.001519  0.000092  0.001112
    -0.001968  0.000077  0.000758 -0.003183 -0.000185  0.001771  0.000029 -0.000070
     0.002233  0.001516 -0.000005  0.002061 -0.000012 -0.000473  0.001465 -0.001889
     0.000314
     NEW TRUST RADIUS =  0.10000

     HESSIAN IS BEING UPDATED USING THE BFGS UPDATE

*REMARK   3 HET = Not identified; C 20 H 28 O 3      =    51 atoms res:    1
 PM7 CHARGE=0 EF NOXYZ PRNT=2 PDBOUT COMPFG GRAPHF
 6436805

  O(HETATM    1  O1  HET A   1)   0.00038257 +1   -0.0152814 +1    0.0085537 +1
  O(HETATM    2  O2  HET A   1)   7.42731105 +1   -0.6369022 +1   -0.0835351 +1     1     0     0
  O(HETATM    3  O3  HET A   1)   2.31291800 +1  139.3326193 +1   -0.2098817 +1     2     1     0
  C(HETATM    4  C1  HET A   1)   1.42733709 +1   81.5699194 +1  120.7172696 +1     1     2     3
  C(HETATM    5  C2  HET A   1)   1.43205224 +1   23.4958261 +1  159.0718304 +1     1     2     3
  C(HETATM    6  C3  HET A   1)   1.52697692 +1  113.8330110 +1  -95.5422318 +1     4     1     2
  C(HETATM    7  C4  HET A   1)   1.52052292 +1  115.2389243 +1  109.3609106 +1     5     1     2
  C(HETATM    8  C5  HET A   1)   1.52312803 +1  114.2741165 +1  129.3078434 +1     4     1     2
  C(HETATM    9  C6  HET A   1)   1.54503758 +1  113.0075831 +1  153.1837438 +1     6     4     1
  C(HETATM   10  C7  HET A   1)   1.55111119 +1  112.7842837 +1 -130.7586512 +1     7     5     1
  C(HETATM   11  C8  HET A   1)   1.52509231 +1  113.1741896 +1  -63.5946556 +1    10     7     5
  C(HETATM   12  C9  HET A   1)   1.52036093 +1  112.3998387 +1  -70.6365809 +1     9     6     4
  C(HETATM   13  C10 HET A   1)   1.47720077 +1   26.7218765 +1 -101.8341454 +1     2     1     3
  C(HETATM   14  C11 HET A   1)   1.45449698 +1  114.7923481 +1  121.8571438 +1    11    10     7
  C(HETATM   15  C12 HET A   1)   1.45182345 +1  122.1144790 +1  -96.3350190 +1    12     9     6
  C(HETATM   16  C13 HET A   1)   1.52287941 +1  103.2677983 +1  105.3653696 +1    13     2     1
  C(HETATM   17  C14 HET A   1)   1.51893409 +1  109.2081111 +1  174.4512155 +1    15    12     9
  C(HETATM   18  C15 HET A   1)   1.51614902 +1  119.4932642 +1 -173.8069131 +1    16    13     2
  C(HETATM   19  C16 HET A   1)   1.51232979 +1  117.6578805 +1  -60.1453586 +1    11    10     7
  C(HETATM   20  C17 HET A   1)   1.32174499 +1  111.4279016 +1    3.6792229 +1    16    13     2
  C(HETATM   21  C18 HET A   1)   1.51080284 +1  134.2352062 +1   -2.0098545 +1    15    12     9
  C(HETATM   22  C19 HET A   1)   1.20250623 +1   27.7285988 +1  -43.3649365 +1     3     2     1
  C(HETATM   23  C20 HET A   1)   1.51281547 +1  128.1332139 +1  179.8916272 +1    20    16    13
  H(HETATM   24  H2  HET A   1)   1.08968317 +1  114.1322878 +1  -25.6431169 +1     5     1     2
  H(HETATM   25 1H3  HET A   1)   1.09538505 +1  109.7823989 +1   30.5859746 +1     6     4     1
  H(HETATM   26 2H3  HET A   1)   1.09621516 +1  109.0092938 +1  -85.4821125 +1     6     4     1
  H(HETATM   27 1H4  HET A   1)   1.09420842 +1  109.7203901 +1  106.7472624 +1     7     5     1
  H(HETATM   28 2H4  HET A   1)   1.09707956 +1  109.2555642 +1   -9.6856863 +1     7     5     1
  H(HETATM   29 1H5  HET A   1)   1.09312175 +1  111.1134607 +1  103.0032730 +1     8     4     1
  H(HETATM   30 2H5  HET A   1)   1.09380156 +1  110.3018559 +1 -136.9901771 +1     8     4     1
  H(HETATM   31 3H5  HET A   1)   1.09457683 +1  111.2178116 +1  -16.9837879 +1     8     4     1
  H(HETATM   32 1H6  HET A   1)   1.09471314 +1  108.8493859 +1  167.6692983 +1     9     6     4
  H(HETATM   33 2H6  HET A   1)   1.09454501 +1  109.7965615 +1   51.5415957 +1     9     6     4
  H(HETATM   34 1H7  HET A   1)   1.09579020 +1  108.7262579 +1  174.9300714 +1    10     7     5
  H(HETATM   35 2H7  HET A   1)   1.09540259 +1  108.5829790 +1   59.5299927 +1    10     7     5
  H(HETATM   36  H9  HET A   1)   1.08530925 +1  105.4053343 +1   81.4927624 +1    12     9     6
  H(HETATM   37  H10 HET A   1)   1.09604838 +1  108.6905108 +1 -138.4352633 +1    13     2     1
  H(HETATM   38  H11 HET A   1)   1.08531198 +1  128.2977824 +1    0.2259925 +1    14    11    10
  H(HETATM   39 1H14 HET A   1)   1.09497603 +1  109.9225660 +1   28.6146422 +1    17    15    12
  H(HETATM   40 2H14 HET A   1)   1.09558827 +1  110.2579025 +1  145.6104284 +1    17    15    12
  H(HETATM   41 1H15 HET A   1)   1.09510185 +1  108.7944298 +1   47.8066543 +1    18    16    13
  H(HETATM   42 2H15 HET A   1)   1.09371988 +1  111.0263312 +1  164.1718727 +1    18    16    13
  H(HETATM   43 1H16 HET A   1)   1.09380811 +1  110.7823544 +1 -142.9640305 +1    19    11    10
  H(HETATM   44 2H16 HET A   1)   1.09277196 +1  110.5324621 +1   96.9465537 +1    19    11    10
  H(HETATM   45 3H16 HET A   1)   1.09448359 +1  111.3532090 +1  -23.4159187 +1    19    11    10
  H(HETATM   46 1H18 HET A   1)   1.09324301 +1  110.9172694 +1  129.4261058 +1    21    15    12
  H(HETATM   47 2H18 HET A   1)   1.09222477 +1  110.9002483 +1    9.5597638 +1    21    15    12
  H(HETATM   48 3H18 HET A   1)   1.09389067 +1  110.5307680 +1 -110.4555716 +1    21    15    12
  H(HETATM   49 1H20 HET A   1)   1.09244303 +1  112.4585396 +1   -3.1909410 +1    23    20    16
  H(HETATM   50 2H20 HET A   1)   1.09426004 +1  110.2043192 +1 -123.3300547 +1    23    20    16
  H(HETATM   51 3H20 HET A   1)   1.09362186 +1  110.2135664 +1  117.5331595 +1    23    20    16

 XPARAM 
  1  1    0.0004  1  2   -0.0153  1  3    0.0086  2  1    7.4273  2  2   -0.0111
  2  3   -0.0015  3  1    2.3129  3  2    2.4318  3  3   -0.0037  4  1    1.4273
  4  2    1.4237  4  3    2.1069  5  1    1.4321  5  2    0.4101  5  3    2.7763
  6  1    1.5270  6  2    1.9868  6  3    4.6157  7  1    1.5205  7  2    2.0113
  7  3    1.9087  8  1    1.5231  8  2    1.9945  8  3    2.2568  9  1    1.5450
  9  2    1.9724  9  3    2.6736 10  1    1.5511 10  2    1.9685 10  3    4.0010
 11  1    1.5251 11  2    1.9753 11  3    5.1732 12  1    1.5204 12  2    1.9617
 12  3    5.0503 13  1    1.4772 13  2    0.4664 13  3    4.5058 14  1    1.4545
 14  2    2.0035 14  3    2.1268 15  1    1.4518 15  2    2.1313 15  3    4.6018
 16  1    1.5229 16  2    1.8024 16  3    1.8390 17  1    1.5189 17  2    1.9060
 17  3    3.0447 18  1    1.5161 18  2    2.0856 18  3    3.2497 19  1    1.5123
 19  2    2.0535 19  3    5.2335 20  1    1.3217 20  2    1.9448 20  3    0.0642
 21  1    1.5108 21  2    2.3428 21  3    6.2481 22  1    1.2025 22  2    0.4840
 22  3    5.5263 23  1    1.5128 23  2    2.2363 23  3    3.1397 24  1    1.0897
 24  2    1.9920 24  3    5.8356 25  1    1.0954 25  2    1.9161 25  3    0.5338
 26  1    1.0962 26  2    1.9026 26  3    4.7912 27  1    1.0942 27  2    1.9150
 27  3    1.8631 28  1    1.0971 28  2    1.9069 28  3    6.1141 29  1    1.0931
 29  2    1.9393 29  3    1.7977 30  1    1.0938 30  2    1.9251 30  3    3.8923
 31  1    1.0946 31  2    1.9411 31  3    5.9868 32  1    1.0947 32  2    1.8998
 32  3    2.9264 33  1    1.0945 33  2    1.9163 33  3    0.8996 34  1    1.0958
 34  2    1.8976 34  3    3.0531 35  1    1.0954 35  2    1.8951 35  3    1.0390
 36  1    1.0853 36  2    1.8397 36  3    1.4223 37  1    1.0960 37  2    1.8970
 37  3    3.8670 38  1    1.0853 38  2    2.2392 38  3    0.0039 39  1    1.0950
 39  2    1.9185 39  3    0.4994 40  1    1.0956 40  2    1.9244 40  3    2.5414
 41  1    1.0951 41  2    1.8988 41  3    0.8344 42  1    1.0937 42  2    1.9378
 42  3    2.8653 43  1    1.0938 43  2    1.9335 43  3    3.7880 44  1    1.0928
 44  2    1.9292 44  3    1.6920 45  1    1.0945 45  2    1.9435 45  3    5.8745
 46  1    1.0932 46  2    1.9359 46  3    2.2589 47  1    1.0922 47  2    1.9356
 47  3    0.1668 48  1    1.0939 48  2    1.9291 48  3    4.3554 49  1    1.0924
 49  2    1.9628 49  3    6.2275 50  1    1.0943 50  2    1.9234 50  3    4.1307
 51  1    1.0936 51  2    1.9236 51  3    2.0513
 grad
       0.00000    0.00000    0.00001  -58.02957    0.00000    0.00000   34.65327   78.45559
       0.00000  -71.07212 -417.78107 -194.04808   29.92980  -15.90690   -1.10707  -21.35027
    -138.07796   94.60202  -19.83040  139.28205  -87.94800   13.66543   -1.05710    3.94047
     -42.70876  -42.28720 -312.29129   19.77305  -89.09763  -88.13389   70.58638  -43.51186
     -16.08833   59.83102 -238.17105   39.02018  141.13647    9.35337 -224.35484  165.03411
      33.20183  -22.15843  176.08221   28.44745   70.81963   36.23860  279.27634   90.83188
      38.26291   -7.24291  -77.07659   58.20050  -34.07199  -56.34100   29.77921   -5.60299
      -1.83711  -39.46568   81.85716   -2.19996   33.35057   21.30347    2.44661  -31.77761
     -71.98857  -10.27930   36.56341  -14.87928   -0.20521   -2.83911    0.98829    2.04657
      -7.76826    0.22162    0.49609   -7.01750   -0.09268   -1.72060   -7.51542   -0.39644
       0.45029   -7.61292    0.65394   -0.76451   -1.74160   -0.98611    0.65562   -1.54839
      -1.22182    0.28463   -1.70555    0.29455   -0.52806   -7.94194    0.29068    1.65302
      -7.37880   -0.21150   -0.90075   -7.53354   -1.63459    0.02283   -7.81597   -1.29186
      -0.75053    8.31994  -31.15325    0.62864   -9.11378   15.13193   -2.73614    7.09398
      16.96153   -1.20987   -9.06431   -3.78719   -2.01480   -8.65192   -4.49378    0.46856
      -9.14475   -4.77923    4.51257  -12.69536    1.80666    6.40745   -3.62137   -2.41937
      -0.40958   -3.41737   -0.75289    0.49322   -1.40724   -0.38283   -0.63643   -2.20995
      -0.38840   -0.37025   -3.60409   -2.12305    0.43539   -2.14914    0.14280    0.06523
      -1.37789    1.74617   -0.24488   -3.25266   -0.52297    1.19816   -3.65198   -0.66777
      -0.91653
 CYCLE:     2 TIME:   0.070 TIME LEFT:  2.00D  GRAD.:   855.389 HEAT: -59.20317

          HESSIAN HAS  0 NEGATIVE EIGENVALUE(S)
  MIN SEARCH, CORRECT HESSIAN, TRYING PURE NR STEP
 LAMBDA THAT MINIMIZES ALONG ALL MODES =        0.000000000
 PURE NR-STEP HAS LENGTH   2.33150
 LAMBDA THAT MINIMIZES ALONG ALL MODES =     -268.525452294
 P-RFO-STEP   HAS LENGTH   0.75269
 LAMBDA THAT MINIMIZES ALONG ALL MODES =    -3270.307685244
 QA/TRIM-STEP HAS LENGTH   0.10000

  HEAT OF FORMATION       -16.667925233487040    
 PARAMETERS        0.001  -0.021   0.007   7.428  -0.019  -0.013   2.316   2.434
  -0.009   1.438   1.461   2.129   1.437   0.398   2.770   1.533   1.999   4.607

   1.521   2.006   1.910   1.523   1.990   2.252   1.553   1.969   2.709   1.557

   1.966   4.007   1.526   1.976   5.175   1.520   1.984   5.046   1.488   0.448

   4.519   1.416   2.000   2.126   1.411   2.129   4.590   1.539   1.809   1.823

   1.519   1.905   3.052   1.512   2.085   3.254   1.510   2.053   5.231   1.329

   1.950   0.063   1.509   2.333   6.244   1.199   0.485   5.526   1.509   2.234

   3.136   1.093   1.991   5.835   1.098   1.914   0.533   1.100   1.901   4.791

   1.097   1.914   1.862   1.102   1.906   6.114   1.095   1.938   1.797   1.096

   1.924   3.891   1.097   1.940   5.986   1.098   1.898   2.925   1.097   1.915

   0.899   1.100   1.897   3.052   1.098   1.894   1.038   1.083   1.848   1.421

   1.100   1.893   3.867   1.083   2.232   0.004   1.098   1.918   0.499   1.099

   1.924   2.540   1.099   1.898   0.833   1.098   1.936   2.864   1.096   1.933

   3.787   1.095   1.928   1.691   1.097   1.943   5.874   1.095   1.934   2.258

   1.094   1.935   0.166   1.096   1.928   4.355   1.095   1.961   6.227   1.097

   1.922   4.129   1.096   1.922   2.051
 GRADIENT         -0.000   0.000   0.000 -21.833   0.000   0.000  45.534  97.786
   0.000 155.221 598.108 294.518  34.596-145.747   2.359  58.121 238.945  50.452

 -18.119 123.616 -57.397  17.379   0.317   8.586 125.805  28.017 541.152  20.156

 -95.044   6.878  45.389  -8.843  38.587  12.343 477.706  36.615  58.142-423.833

 268.372 124.347 -16.875 -22.815 101.371   4.706-103.961  79.917  50.700-247.677

  14.927 -30.683 186.557  24.547  51.952 167.754  25.362  -0.220  -2.178 -26.184

 102.422  -7.370  31.098  15.017  -0.090 -45.780 -70.369 -16.777  36.637 -17.581

  -0.346   3.314   1.361   6.785  -3.866  -1.099  -2.438  -4.890   0.799  -3.430

  -4.706  -0.946  -0.380  -4.424   0.301  -0.804  -0.672  -0.835   0.696  -0.257

  -1.465   0.101   0.086   0.188  -0.400  -5.899   1.732   2.673  -5.571   1.026

  -1.412  -4.722  -1.302  -0.045  -5.506  -0.736  -1.225   5.033 -27.919   1.536

  -2.178  12.774  -2.020   7.297   8.816  -1.518   9.697 -17.269  20.154  10.893

 -15.897 -22.436   8.149 -15.763  21.375  10.188 -12.777 -20.246  -2.083  -3.169

  -1.023  -2.307  -0.957   0.687   0.265  -0.680  -0.643  -1.347   0.346  -0.460

  -2.605  -2.603   0.227  -0.489  -0.395   0.273   0.179   1.451  -0.042  -1.687

  -0.883   1.043  -2.465  -1.164  -0.880
       HoF         ACTUAL,  PREDICTED ENERGY CHANGE, RATIO
   -16.6679252    42.5352442         -45.3927065   -0.9370502
 UNACCEPTABLE RATIO, REJECTING STEP, REDUCING DMAX TO 0.0500
  MIN SEARCH, CORRECT HESSIAN, TRYING PURE NR STEP
 LAMBDA THAT MINIMIZES ALONG ALL MODES =        0.000000000
 PURE NR-STEP HAS LENGTH   2.33150
 LAMBDA THAT MINIMIZES ALONG ALL MODES =     -268.525452294
 P-RFO-STEP   HAS LENGTH   0.75269
 LAMBDA THAT MINIMIZES ALONG ALL MODES =    -7951.206314218
 QA/TRIM-STEP HAS LENGTH   0.05000

  HEAT OF FORMATION       -50.648141667887103    
 PARAMETERS        0.001  -0.016   0.007   7.429  -0.014  -0.008   2.313   2.431
  -0.006   1.433   1.447   2.118   1.433   0.406   2.773   1.530   1.993   4.610

   1.522   2.006   1.911   1.523   1.993   2.255   1.549   1.972   2.692   1.553

   1.969   4.004   1.525   1.975   5.174   1.520   1.974   5.047   1.478   0.459

   4.514   1.438   2.002   2.127   1.434   2.129   4.596   1.528   1.798   1.831

   1.519   1.905   3.049   1.514   2.086   3.252   1.512   2.052   5.232   1.325

   1.945   0.063   1.510   2.337   6.246   1.203   0.485   5.525   1.511   2.236

   3.138   1.091   1.991   5.835   1.097   1.916   0.533   1.098   1.902   4.791

   1.096   1.915   1.863   1.099   1.906   6.114   1.094   1.939   1.797   1.095

   1.925   3.892   1.096   1.940   5.986   1.096   1.899   2.926   1.096   1.916

   0.899   1.097   1.897   3.053   1.097   1.895   1.039   1.085   1.843   1.422

   1.098   1.895   3.867   1.084   2.237   0.004   1.096   1.919   0.499   1.097

   1.924   2.541   1.097   1.899   0.834   1.096   1.937   2.864   1.095   1.933

   3.788   1.094   1.929   1.692   1.096   1.943   5.874   1.094   1.935   2.259

   1.093   1.936   0.166   1.095   1.928   4.355   1.094   1.962   6.227   1.095

   1.923   4.130   1.095   1.923   2.051
 GRADIENT          0.000   0.000   0.000 -22.536   0.000   0.000  33.073  77.400
   0.000 123.394 488.147 246.884  23.636 -77.791   4.784  48.312 203.737  50.688

 -10.839  91.180 -50.546  15.876  -0.075   6.533 105.766  22.732 457.647  13.680

 -69.728 -17.892  42.436 -17.161  14.634  14.590 406.733  36.382  42.771-368.333

 228.870 141.657  -6.126 -19.153 129.133   6.597 -87.977  54.994  42.370-210.128

   8.169 -28.643 160.299  21.388  38.571 147.154  28.438  -4.752  -2.152 -31.754

  81.515  -5.737  33.395  17.630   0.746 -29.342 -70.375 -13.802  35.734 -15.009

  -0.306   0.539   0.891   4.516  -5.822  -0.366  -1.085  -6.095   0.474  -2.661

  -6.208  -0.508   0.088  -6.228   0.621  -0.902  -1.209  -0.872   0.696  -0.939

  -1.341   0.189  -0.883   0.228  -0.456  -7.098   1.164   2.283  -6.566   0.580

  -1.183  -6.362  -1.413   0.079  -6.832  -0.992  -1.000   6.974 -29.927   1.173

  -5.580  12.780  -2.688   7.908  13.230  -1.576   5.464 -13.372  13.737   6.222

 -12.262 -15.381   3.613 -12.051  15.822   4.893  -8.528 -13.042  -2.816  -2.533

  -0.536  -2.828  -0.789   0.528  -0.597  -0.536  -0.628  -1.769   0.336  -0.526

  -3.075  -2.251   0.309  -1.351  -0.093   0.142  -0.694   1.435  -0.148  -2.558

  -0.693   1.156  -3.113  -0.825  -0.954
       HoF         ACTUAL,  PREDICTED ENERGY CHANGE, RATIO
   -50.6481417     8.5550277         -27.7168093   -0.3086585
 UNACCEPTABLE RATIO, REJECTING STEP, REDUCING DMAX TO 0.0250
  MIN SEARCH, CORRECT HESSIAN, TRYING PURE NR STEP
 LAMBDA THAT MINIMIZES ALONG ALL MODES =        0.000000000
 PURE NR-STEP HAS LENGTH   2.33150
 LAMBDA THAT MINIMIZES ALONG ALL MODES =     -268.525452294
 P-RFO-STEP   HAS LENGTH   0.75269
 LAMBDA THAT MINIMIZES ALONG ALL MODES =   -21127.574102520
 QA/TRIM-STEP HAS LENGTH   0.02500

  HEAT OF FORMATION       -63.460858791091596    
 PARAMETERS        0.000  -0.015   0.007   7.429  -0.012  -0.005   2.313   2.431
  -0.005   1.430   1.436   2.112   1.432   0.409   2.775   1.529   1.990   4.612

   1.522   2.008   1.910   1.523   1.994   2.256   1.547   1.973   2.683   1.552

   1.970   4.003   1.524   1.975   5.173   1.520   1.968   5.049   1.475   0.464

   4.511   1.448   2.002   2.127   1.445   2.129   4.599   1.524   1.797   1.835

   1.519   1.906   3.047   1.515   2.086   3.251   1.512   2.052   5.233   1.324

   1.944   0.064   1.511   2.340   6.247   1.204   0.484   5.525   1.512   2.236

   3.139   1.090   1.991   5.835   1.096   1.916   0.534   1.097   1.902   4.791

   1.095   1.915   1.863   1.098   1.906   6.114   1.093   1.939   1.798   1.094

   1.925   3.892   1.095   1.941   5.987   1.095   1.900   2.926   1.095   1.916

   0.899   1.096   1.898   3.053   1.096   1.895   1.039   1.085   1.841   1.422

   1.097   1.896   3.867   1.085   2.238   0.004   1.096   1.919   0.499   1.096

   1.924   2.541   1.096   1.899   0.834   1.095   1.938   2.865   1.094   1.933

   3.788   1.093   1.929   1.692   1.095   1.943   5.874   1.094   1.936   2.259

   1.093   1.936   0.167   1.094   1.929   4.355   1.093   1.962   6.227   1.095

   1.923   4.130   1.094   1.924   2.051
 GRADIENT          0.000   0.000   0.000 -32.968   0.000   0.000  30.444  72.185
   0.000  73.909 269.584 143.440  22.571 -44.764   3.479  31.117 124.612  61.028

 -11.990  98.419 -59.986  14.838  -0.515   5.252  70.035   8.213 277.605  13.854

 -70.264 -43.532  49.965 -26.744   0.688  24.953 256.192  37.107  60.649-283.755

 123.550 152.322   7.637 -19.373 146.598  11.968 -51.303  42.917  92.956-138.991

  11.721 -23.372 104.739  27.739  17.909 100.938  29.514  -5.884  -2.091 -35.266

  75.883  -4.327  33.936  19.318   1.403 -25.807 -70.172 -12.038  35.727 -14.477

  -0.244  -1.148   0.799   3.227  -6.873  -0.011  -0.291  -6.675   0.230  -2.210

  -6.961  -0.369   0.313  -7.083   0.713  -0.884  -1.499  -0.912   0.681  -1.288

  -1.270   0.241  -1.364   0.245  -0.492  -7.645   0.775   1.996  -7.049   0.211

  -1.039  -7.108  -1.495   0.093  -7.447  -1.155  -0.868   7.823 -30.766   0.932

  -7.438  13.494  -2.807   7.815  15.379  -1.492   0.352  -9.583   7.459   0.851

  -8.965  -8.883  -1.186  -8.940  10.952  -1.334  -4.327  -5.613  -3.239  -2.382

  -0.407  -3.136  -0.732   0.480  -1.050  -0.449  -0.641  -1.999   0.148  -0.476

  -3.351  -2.129   0.379  -1.803   0.027   0.104  -1.115   1.498  -0.192  -2.982

  -0.579   1.209  -3.436  -0.686  -0.963
       HoF         ACTUAL,  PREDICTED ENERGY CHANGE, RATIO
   -63.4608588    -4.2576894         -16.4184524    0.2593234
     STEPSIZE USED IS  0.02500
 CALCULATED STEP
     0.000095  0.000622 -0.001398  0.001446 -0.000612 -0.003145 -0.000169 -0.000878
    -0.000921  0.002942  0.012589  0.005489  0.000086 -0.000963 -0.001559  0.001719
     0.003183 -0.003339  0.000984 -0.003579  0.001590  0.000195 -0.000442 -0.000971
     0.002192  0.000428  0.009412  0.000724  0.001045  0.001914 -0.000736 -0.000177
    -0.000055 -0.000599  0.006119 -0.001782 -0.001800 -0.002656  0.005019 -0.006510
    -0.001061 -0.000082 -0.006756 -0.001803 -0.003014  0.000980 -0.005747 -0.003965
    -0.000279 -0.000333  0.001816 -0.001084  0.000273  0.001155 -0.000020 -0.001155
    -0.000674  0.001765 -0.000682 -0.000557  0.000047 -0.002884 -0.000768  0.001130
     0.000441 -0.000867 -0.000518 -0.000270 -0.000701  0.000590 -0.000505 -0.000274
     0.000512  0.000032 -0.000244  0.000729 -0.000385 -0.000129  0.000577 -0.000078
    -0.000243  0.000841 -0.000564 -0.000166  0.000293 -0.000030 -0.000242  0.000408
    -0.000235 -0.000226  0.000543 -0.000515 -0.000184  0.000663 -0.000209 -0.000299
     0.000510  0.000025 -0.000173  0.000658 -0.000130 -0.000225  0.000546  0.000066
    -0.000182 -0.000233  0.001460 -0.000254  0.000767 -0.000905 -0.000070 -0.000268
    -0.000743 -0.000098  0.000537  0.000202 -0.000127  0.000650  0.000007 -0.000250
     0.000607  0.000166 -0.000354  0.000807 -0.000271 -0.000434  0.000495 -0.000184
    -0.000204  0.000361 -0.000035 -0.000230  0.000519 -0.000478 -0.000182  0.000342
    -0.000124 -0.000192  0.000280  0.000182 -0.000232  0.000464 -0.000347 -0.000215
     0.000545 -0.000600 -0.000196  0.000508 -0.000294 -0.000275  0.000401 -0.000079
    -0.000163
     NEW TRUST RADIUS =  0.02500
*REMARK   3 HET = Not identified; C 20 H 28 O 3      =    51 atoms res:    1
 PM7 CHARGE=0 EF NOXYZ PRNT=2 PDBOUT COMPFG GRAPHF
 6436805

  O(HETATM    1  O1  HET A   1)   0.00047708 +1   -0.0146594 +1    0.0071561 +1
  O(HETATM    2  O2  HET A   1)   7.42875731 +1   -0.6719438 +1   -0.2637257 +1     1     0     0
  O(HETATM    3  O3  HET A   1)   2.31274941 +1  139.2822977 +1   -0.2626313 +1     2     1     0
  C(HETATM    4  C1  HET A   1)   1.43027922 +1   82.2911938 +1  121.0317755 +1     1     2     3
  C(HETATM    5  C2  HET A   1)   1.43213804 +1   23.4406711 +1  158.9825045 +1     1     2     3
  C(HETATM    6  C3  HET A   1)   1.52869603 +1  114.0153831 +1  -95.7335388 +1     4     1     2
  C(HETATM    7  C4  HET A   1)   1.52150711 +1  115.0338420 +1  109.4520147 +1     5     1     2
  C(HETATM    8  C5  HET A   1)   1.52332256 +1  114.2488022 +1  129.2522134 +1     4     1     2
  C(HETATM    9  C6  HET A   1)   1.54722991 +1  113.0320966 +1  153.7230093 +1     6     4     1
  C(HETATM   10  C7  HET A   1)   1.55183535 +1  112.8441784 +1 -130.6490094 +1     7     5     1
  C(HETATM   11  C8  HET A   1)   1.52435660 +1  113.1640704 +1  -63.5977808 +1    10     7     5
  C(HETATM   12  C9  HET A   1)   1.51976185 +1  112.7504344 +1  -70.7387070 +1     9     6     4
  C(HETATM   13  C10 HET A   1)   1.47540065 +1   26.5696963 +1 -101.5465575 +1     2     1     3
  C(HETATM   14  C11 HET A   1)   1.44798675 +1  114.7315380 +1  121.8524653 +1    11    10     7
  C(HETATM   15  C12 HET A   1)   1.44506697 +1  122.0111669 +1  -96.5077127 +1    12     9     6
  C(HETATM   16  C13 HET A   1)   1.52385954 +1  102.9385089 +1  105.1382191 +1    13     2     1
  C(HETATM   17  C14 HET A   1)   1.51865511 +1  109.1890305 +1  174.5552522 +1    15    12     9
  C(HETATM   18  C15 HET A   1)   1.51506520 +1  119.5089198 +1 -173.7407228 +1    16    13     2
  C(HETATM   19  C16 HET A   1)   1.51230978 +1  117.5916837 +1  -60.1839590 +1    11    10     7
  C(HETATM   20  C17 HET A   1)   1.32350991 +1  111.3888537 +1    3.6473202 +1    16    13     2
  C(HETATM   21  C18 HET A   1)   1.51085011 +1  134.0699747 +1   -2.0538564 +1    15    12     9
  C(HETATM   22  C19 HET A   1)   1.20363590 +1   27.7538585 +1  -43.4146055 +1     3     2     1
  C(HETATM   23  C20 HET A   1)   1.51229729 +1  128.1177495 +1  179.8514455 +1    20    16    13
  H(HETATM   24  H2  HET A   1)   1.09027320 +1  114.1033267 +1  -25.6587989 +1     5     1     2
  H(HETATM   25 1H3  HET A   1)   1.09589684 +1  109.7842195 +1   30.5720014 +1     6     4     1
  H(HETATM   26 2H3  HET A   1)   1.09694420 +1  108.9872277 +1  -85.4894907 +1     6     4     1
  H(HETATM   27 1H4  HET A   1)   1.09478577 +1  109.7159013 +1  106.7333529 +1     7     5     1
  H(HETATM   28 2H4  HET A   1)   1.09792032 +1  109.2232509 +1   -9.6952172 +1     7     5     1
  H(HETATM   29 1H5  HET A   1)   1.09341447 +1  111.1117493 +1  102.9893980 +1     8     4     1
  H(HETATM   30 2H5  HET A   1)   1.09420986 +1  110.2883803 +1 -137.0031120 +1     8     4     1
  H(HETATM   31 3H5  HET A   1)   1.09511995 +1  111.1882769 +1  -16.9943573 +1     8     4     1
  H(HETATM   32 1H6  HET A   1)   1.09537620 +1  108.8373919 +1  167.6521842 +1     9     6     4
  H(HETATM   33 2H6  HET A   1)   1.09505520 +1  109.7979932 +1   51.5316569 +1     9     6     4
  H(HETATM   34 1H7  HET A   1)   1.09644797 +1  108.7188127 +1  174.9171841 +1    10     7     5
  H(HETATM   35 2H7  HET A   1)   1.09594821 +1  108.5867655 +1   59.5195434 +1    10     7     5
  H(HETATM   36  H9  HET A   1)   1.08507618 +1  105.4889677 +1   81.4781900 +1    12     9     6
  H(HETATM   37  H10 HET A   1)   1.09681582 +1  108.6386610 +1 -138.4392755 +1    13     2     1
  H(HETATM   38  H11 HET A   1)   1.08504348 +1  128.2552363 +1    0.2204044 +1    14    11    10
  H(HETATM   39 1H14 HET A   1)   1.09551289 +1  109.9341284 +1   28.6073429 +1    17    15    12
  H(HETATM   40 2H14 HET A   1)   1.09623800 +1  110.2583136 +1  145.5960929 +1    17    15    12
  H(HETATM   41 1H15 HET A   1)   1.09570854 +1  108.8039137 +1   47.7863460 +1    18    16    13
  H(HETATM   42 2H15 HET A   1)   1.09452724 +1  111.0108203 +1  164.1469933 +1    18    16    13
  H(HETATM   43 1H16 HET A   1)   1.09430342 +1  110.7717865 +1 -142.9757089 +1    19    11    10
  H(HETATM   44 2H16 HET A   1)   1.09313337 +1  110.5304728 +1   96.9333628 +1    19    11    10
  H(HETATM   45 3H16 HET A   1)   1.09500215 +1  111.3258361 +1  -23.4263264 +1    19    11    10
  H(HETATM   46 1H18 HET A   1)   1.09358470 +1  110.9101624 +1  129.4151039 +1    21    15    12
  H(HETATM   47 2H18 HET A   1)   1.09250481 +1  110.9106985 +1    9.5464607 +1    21    15    12
  H(HETATM   48 3H18 HET A   1)   1.09435499 +1  110.5108617 +1 -110.4679032 +1    21    15    12
  H(HETATM   49 1H20 HET A   1)   1.09298834 +1  112.4241591 +1   -3.2021970 +1    23    20    16
  H(HETATM   50 2H20 HET A   1)   1.09476834 +1  110.1874700 +1 -123.3457889 +1    23    20    16
  H(HETATM   51 3H20 HET A   1)   1.09402247 +1  110.2090607 +1  117.5237942 +1    23    20    16

 XPARAM 
  1  1    0.0005  1  2   -0.0147  1  3    0.0072  2  1    7.4288  2  2   -0.0117
  2  3   -0.0046  3  1    2.3127  3  2    2.4309  3  3   -0.0046  4  1    1.4303
  4  2    1.4363  4  3    2.1124  5  1    1.4321  5  2    0.4091  5  3    2.7748
  6  1    1.5287  6  2    1.9899  6  3    4.6123  7  1    1.5215  7  2    2.0077
  7  3    1.9103  8  1    1.5233  8  2    1.9940  8  3    2.2559  9  1    1.5472
  9  2    1.9728  9  3    2.6830 10  1    1.5518 10  2    1.9695 10  3    4.0029
 11  1    1.5244 11  2    1.9751 11  3    5.1732 12  1    1.5198 12  2    1.9679
 12  3    5.0486 13  1    1.4754 13  2    0.4637 13  3    4.5109 14  1    1.4480
 14  2    2.0024 14  3    2.1267 15  1    1.4451 15  2    2.1295 15  3    4.5988
 16  1    1.5239 16  2    1.7966 16  3    1.8350 17  1    1.5187 17  2    1.9057
 17  3    3.0466 18  1    1.5151 18  2    2.0858 18  3    3.2508 19  1    1.5123
 19  2    2.0524 19  3    5.2328 20  1    1.3235 20  2    1.9441 20  3    0.0637
 21  1    1.5109 21  2    2.3400 21  3    6.2473 22  1    1.2036 22  2    0.4844
 22  3    5.5255 23  1    1.5123 23  2    2.2361 23  3    3.1390 24  1    1.0903
 24  2    1.9915 24  3    5.8354 25  1    1.0959 25  2    1.9161 25  3    0.5336
 26  1    1.0969 26  2    1.9022 26  3    4.7911 27  1    1.0948 27  2    1.9149
 27  3    1.8628 28  1    1.0979 28  2    1.9063 28  3    6.1140 29  1    1.0934
 29  2    1.9393 29  3    1.7975 30  1    1.0942 30  2    1.9249 30  3    3.8920
 31  1    1.0951 31  2    1.9406 31  3    5.9866 32  1    1.0954 32  2    1.8996
 32  3    2.9261 33  1    1.0951 33  2    1.9163 33  3    0.8994 34  1    1.0964
 34  2    1.8975 34  3    3.0529 35  1    1.0959 35  2    1.8952 35  3    1.0388
 36  1    1.0851 36  2    1.8411 36  3    1.4221 37  1    1.0968 37  2    1.8961
 37  3    3.8670 38  1    1.0850 38  2    2.2385 38  3    0.0038 39  1    1.0955
 39  2    1.9187 39  3    0.4993 40  1    1.0962 40  2    1.9244 40  3    2.5411
 41  1    1.0957 41  2    1.8990 41  3    0.8340 42  1    1.0945 42  2    1.9375
 42  3    2.8649 43  1    1.0943 43  2    1.9333 43  3    3.7878 44  1    1.0931
 44  2    1.9291 44  3    1.6918 45  1    1.0950 45  2    1.9430 45  3    5.8743
 46  1    1.0936 46  2    1.9357 46  3    2.2587 47  1    1.0925 47  2    1.9358
 47  3    0.1666 48  1    1.0944 48  2    1.9288 48  3    4.3552 49  1    1.0930
 49  2    1.9622 49  3    6.2273 50  1    1.0948 50  2    1.9231 50  3    4.1304
 51  1    1.0940 51  2    1.9235 51  3    2.0512
 grad
       0.00000    0.00000    0.00001  -32.96778    0.00000    0.00000   30.44429   72.18462
       0.00000   73.90936  269.58368  143.43978   22.57075  -44.76367    3.47866   31.11735
     124.61183   61.02796  -11.98978   98.41881  -59.98600   14.83768   -0.51498    5.25156
      70.03480    8.21307  277.60517   13.85387  -70.26433  -43.53219   49.96525  -26.74431
       0.68778   24.95295  256.19238   37.10659   60.64881 -283.75538  123.54971  152.32209
       7.63704  -19.37318  146.59796   11.96822  -51.30304   42.91746   92.95569 -138.99060
      11.72131  -23.37179  104.73937   27.73920   17.90924  100.93786   29.51412   -5.88405
      -2.09052  -35.26573   75.88323   -4.32743   33.93629   19.31793    1.40256  -25.80732
     -70.17191  -12.03834   35.72749  -14.47685   -0.24436   -1.14797    0.79918    3.22712
      -6.87344   -0.01144   -0.29094   -6.67455    0.22963   -2.21004   -6.96060   -0.36881
       0.31282   -7.08278    0.71340   -0.88360   -1.49890   -0.91212    0.68068   -1.28783
      -1.26993    0.24086   -1.36443    0.24517   -0.49174   -7.64500    0.77506    1.99610
      -7.04902    0.21087   -1.03924   -7.10798   -1.49547    0.09303   -7.44678   -1.15536
      -0.86834    7.82324  -30.76570    0.93221   -7.43836   13.49389   -2.80669    7.81512
      15.37934   -1.49169    0.35215   -9.58289    7.45915    0.85121   -8.96538   -8.88338
      -1.18636   -8.94017   10.95162   -1.33376   -4.32731   -5.61265   -3.23886   -2.38205
      -0.40685   -3.13577   -0.73173    0.47982   -1.04972   -0.44873   -0.64086   -1.99857
       0.14774   -0.47580   -3.35106   -2.12934    0.37860   -1.80331    0.02669    0.10374
      -1.11529    1.49821   -0.19198   -2.98160   -0.57862    1.20929   -3.43560   -0.68638
      -0.96301
 CYCLE:     3 TIME:   0.086 TIME LEFT:  2.00D  GRAD.:   722.273 HEAT: -63.46086

          HESSIAN HAS  0 NEGATIVE EIGENVALUE(S)
  MIN SEARCH, CORRECT HESSIAN, TRYING PURE NR STEP
 LAMBDA THAT MINIMIZES ALONG ALL MODES =        0.000000000
 PURE NR-STEP HAS LENGTH   1.62120
 LAMBDA THAT MINIMIZES ALONG ALL MODES =     -275.379228619
 P-RFO-STEP   HAS LENGTH   0.69885
 LAMBDA THAT MINIMIZES ALONG ALL MODES =   -16506.443766256
 QA/TRIM-STEP HAS LENGTH   0.02500

  HEAT OF FORMATION       -73.515533777957899    
 PARAMETERS        0.001  -0.011   0.007   7.432  -0.011  -0.007   2.312   2.429
  -0.004   1.430   1.435   2.111   1.432   0.412   2.774   1.530   1.987   4.608

   1.524   2.002   1.915   1.524   1.995   2.256   1.547   1.974   2.679   1.553

   1.974   4.007   1.523   1.976   5.174   1.520   1.962   5.047   1.472   0.474

   4.510   1.440   2.002   2.128   1.438   2.128   4.600   1.523   1.788   1.839

   1.519   1.907   3.044   1.515   2.086   3.249   1.513   2.052   5.233   1.327

   1.942   0.064   1.511   2.337   6.248   1.207   0.488   5.526   1.512   2.237

   3.140   1.091   1.991   5.835   1.097   1.917   0.534   1.098   1.902   4.791

   1.096   1.915   1.863   1.099   1.906   6.114   1.094   1.940   1.798   1.095

   1.925   3.892   1.096   1.940   5.987   1.096   1.900   2.926   1.096   1.917

   0.900   1.097   1.898   3.053   1.097   1.896   1.039   1.085   1.843   1.422

   1.098   1.895   3.867   1.085   2.238   0.004   1.096   1.920   0.499   1.097

   1.925   2.542   1.096   1.900   0.834   1.095   1.938   2.865   1.095   1.933

   3.788   1.094   1.930   1.692   1.096   1.943   5.875   1.094   1.936   2.259

   1.093   1.937   0.167   1.095   1.929   4.355   1.094   1.962   6.227   1.095

   1.923   4.130   1.095   1.924   2.051
 GRADIENT          0.000   0.000   0.000   5.483   0.000   0.000  22.073  52.465
   0.000  32.704 101.498  44.801  -8.492 -66.321   9.422  20.528  44.381  30.848

  11.209 -16.201  14.194  15.219  -0.614   4.886  32.248   4.982 101.075   2.225

  -4.039  56.893   2.535  19.019  31.450  21.190  99.851  18.705  41.547 -84.790

  39.086 127.714 -48.295  -5.565 141.368   0.454 -16.764  32.222  81.215 -55.870

   8.857 -21.648  40.137  27.593   6.017  41.078  29.761  -6.755  -2.444 -26.733

  58.512  -4.354  34.232  18.389   1.489 -10.335 -62.365 -10.397  34.508 -12.490

   0.014  -0.503   0.131   2.398  -6.523   0.363   0.077  -5.881   0.248  -1.981

  -6.210  -0.213   0.094  -6.431   1.059  -1.145  -1.119  -0.875   0.681  -0.849

  -1.207   0.236  -0.863   0.224  -0.501  -7.035   0.629   2.015  -6.397   0.006

  -0.746  -6.561  -1.177   0.225  -6.974  -0.795  -1.034   7.390 -30.147   0.904

  -4.567  10.421  -5.128  10.179  11.995  -1.966  -3.378  -6.007   2.641  -3.345

  -5.144  -2.915  -5.517  -4.407   5.043  -5.008  -1.151  -1.093  -2.590  -2.056

  -0.313  -2.623  -0.746   0.498  -0.511  -0.438  -0.588  -1.605   0.205  -0.464

  -2.959  -2.016   0.386  -1.378   0.054   0.120  -0.697   1.309  -0.214  -2.615

  -0.625   1.250  -3.091  -0.614  -0.997
       HoF         ACTUAL,  PREDICTED ENERGY CHANGE, RATIO
   -73.5155338   -10.0546750         -12.0363304    0.8353605
     STEPSIZE USED IS  0.02500
 CALCULATED STEP
     0.000365  0.003314 -0.000553  0.002780  0.000278 -0.002538 -0.000511 -0.002041
     0.000636 -0.000072 -0.000929 -0.001573 -0.000378  0.002682 -0.000653  0.001296
    -0.002616 -0.003908  0.002298 -0.005546  0.004643  0.000682  0.000949  0.000166
    -0.000182  0.001173 -0.004135  0.000972  0.004342  0.003962 -0.001148  0.000985
     0.000743 -0.000016 -0.005960 -0.001832 -0.003662  0.010339 -0.000790 -0.007549
     0.000038  0.001698 -0.006955 -0.001597  0.001134 -0.001015 -0.008161  0.003960
     0.000448  0.001461 -0.002163 -0.000446  0.000278 -0.002321  0.000492 -0.000633
     0.000614  0.003130 -0.002266  0.000683  0.000580 -0.002796  0.000573  0.003347
     0.003145  0.000248 -0.000283  0.001217  0.000625  0.000769 -0.000400 -0.000009
     0.000733  0.000619  0.000147  0.000984 -0.000165  0.000266  0.000817  0.000401
     0.000124  0.001097 -0.000442  0.000194  0.000495  0.000446  0.000110  0.000617
     0.000081  0.000132  0.000759 -0.000393  0.000181  0.000919  0.000148  0.000030
     0.000756  0.000552  0.000205  0.000898  0.000252  0.000138  0.000786  0.000601
     0.000192 -0.000091  0.002285  0.000083  0.000995 -0.000820  0.000309 -0.000118
    -0.000219  0.000290  0.000485  0.001078 -0.000108  0.000590  0.000694  0.000489
     0.000564  0.001012 -0.000383  0.000776  0.000327  0.000240  0.000726  0.000168
     0.000174  0.000582  0.000454  0.000119  0.000735 -0.000332  0.000189  0.000552
     0.000309  0.000176  0.000496  0.000816  0.000126  0.000678 -0.000082  0.000143
     0.000761 -0.000515  0.000167  0.000730 -0.000004  0.000075  0.000620  0.000385
     0.000204
     NEW TRUST RADIUS =  0.03536
*REMARK   3 HET = Not identified; C 20 H 28 O 3      =    51 atoms res:    1
 PM7 CHARGE=0 EF NOXYZ PRNT=2 PDBOUT COMPFG GRAPHF
 6436805

  O(HETATM    1  O1  HET A   1)   0.00084160 +1   -0.0113455 +1    0.0066028 +1
  O(HETATM    2  O2  HET A   1)   7.43153691 +1   -0.6560096 +1   -0.4091188 +1     1     0     0
  O(HETATM    3  O3  HET A   1)   2.31223865 +1  139.1653434 +1   -0.2262127 +1     2     1     0
  C(HETATM    4  C1  HET A   1)   1.43020766 +1   82.2379682 +1  120.9416352 +1     1     2     3
  C(HETATM    5  C2  HET A   1)   1.43175997 +1   23.5943509 +1  158.9450976 +1     1     2     3
  C(HETATM    6  C3  HET A   1)   1.52999215 +1  113.8655075 +1  -95.9574307 +1     4     1     2
  C(HETATM    7  C4  HET A   1)   1.52380496 +1  114.7161072 +1  109.7180238 +1     5     1     2
  C(HETATM    8  C5  HET A   1)   1.52400435 +1  114.3031506 +1  129.2617111 +1     4     1     2
  C(HETATM    9  C6  HET A   1)   1.54704826 +1  113.0993323 +1  153.4860898 +1     6     4     1
  C(HETATM   10  C7  HET A   1)   1.55280736 +1  113.0929552 +1 -130.4220023 +1     7     5     1
  C(HETATM   11  C8  HET A   1)   1.52320864 +1  113.2205315 +1  -63.5552198 +1    10     7     5
  C(HETATM   12  C9  HET A   1)   1.51974597 +1  112.4089374 +1  -70.8436633 +1     9     6     4
  C(HETATM   13  C10 HET A   1)   1.47173902 +1   27.1620904 +1 -101.5918468 +1     2     1     3
  C(HETATM   14  C11 HET A   1)   1.44043756 +1  114.7337417 +1  121.9497360 +1    11    10     7
  C(HETATM   15  C12 HET A   1)   1.43811238 +1  121.9196879 +1  -96.4427192 +1    12     9     6
  C(HETATM   16  C13 HET A   1)   1.52284420 +1  102.4708969 +1  105.3651379 +1    13     2     1
  C(HETATM   17  C14 HET A   1)   1.51910355 +1  109.2727682 +1  174.4313479 +1    15    12     9
  C(HETATM   18  C15 HET A   1)   1.51461968 +1  119.5248619 +1 -173.8737127 +1    16    13     2
  C(HETATM   19  C16 HET A   1)   1.51280194 +1  117.5554231 +1  -60.1487839 +1    11    10     7
  C(HETATM   20  C17 HET A   1)   1.32663981 +1  111.2590473 +1    3.6864804 +1    16    13     2
  C(HETATM   21  C18 HET A   1)   1.51143039 +1  133.9097725 +1   -2.0210357 +1    15    12     9
  C(HETATM   22  C19 HET A   1)   1.20698288 +1   27.9340731 +1  -43.4004074 +1     3     2     1
  C(HETATM   23  C20 HET A   1)   1.51201406 +1  128.1874668 +1  179.8872760 +1    20    16    13
  H(HETATM   24  H2  HET A   1)   1.09104227 +1  114.0803861 +1  -25.6593425 +1     5     1     2
  H(HETATM   25 1H3  HET A   1)   1.09663004 +1  109.8196660 +1   30.5804326 +1     6     4     1
  H(HETATM   26 2H3  HET A   1)   1.09792844 +1  108.9777606 +1  -85.4742760 +1     6     4     1
  H(HETATM   27 1H4  HET A   1)   1.09560295 +1  109.7389009 +1  106.7404618 +1     7     5     1
  H(HETATM   28 2H4  HET A   1)   1.09901756 +1  109.1979433 +1   -9.6840886 +1     7     5     1
  H(HETATM   29 1H5  HET A   1)   1.09390906 +1  111.1373270 +1  102.9956946 +1     8     4     1
  H(HETATM   30 2H5  HET A   1)   1.09482641 +1  110.2930173 +1 -136.9955410 +1     8     4     1
  H(HETATM   31 3H5  HET A   1)   1.09587929 +1  111.1657713 +1  -16.9840134 +1     8     4     1
  H(HETATM   32 1H6  HET A   1)   1.09629475 +1  108.8458697 +1  167.6539069 +1     9     6     4
  H(HETATM   33 2H6  HET A   1)   1.09581099 +1  109.8296017 +1   51.5434211 +1     9     6     4
  H(HETATM   34 1H7  HET A   1)   1.09734602 +1  108.7332329 +1  174.9250998 +1    10     7     5
  H(HETATM   35 2H7  HET A   1)   1.09673448 +1  108.6211924 +1   59.5305164 +1    10     7     5
  H(HETATM   36  H9  HET A   1)   1.08498509 +1  105.6198833 +1   81.4829391 +1    12     9     6
  H(HETATM   37  H10 HET A   1)   1.09781037 +1  108.5916983 +1 -138.4215902 +1    13     2     1
  H(HETATM   38  H11 HET A   1)   1.08492579 +1  128.2427061 +1    0.2370065 +1    14    11    10
  H(HETATM   39 1H14 HET A   1)   1.09599774 +1  109.9958929 +1   28.6011835 +1    17    15    12
  H(HETATM   40 2H14 HET A   1)   1.09682806 +1  110.2980760 +1  145.6241122 +1    17    15    12
  H(HETATM   41 1H15 HET A   1)   1.09627204 +1  108.8619074 +1   47.7643963 +1    18    16    13
  H(HETATM   42 2H15 HET A   1)   1.09530312 +1  111.0295440 +1  164.1607647 +1    18    16    13
  H(HETATM   43 1H16 HET A   1)   1.09502901 +1  110.7813893 +1 -142.9657647 +1    19    11    10
  H(HETATM   44 2H16 HET A   1)   1.09371526 +1  110.5564941 +1   96.9401955 +1    19    11    10
  H(HETATM   45 3H16 HET A   1)   1.09573673 +1  111.3068425 +1  -23.4154909 +1    19    11    10
  H(HETATM   46 1H18 HET A   1)   1.09413688 +1  110.9278539 +1  129.4251814 +1    21    15    12
  H(HETATM   47 2H18 HET A   1)   1.09300074 +1  110.9574468 +1    9.5536655 +1    21    15    12
  H(HETATM   48 3H18 HET A   1)   1.09503323 +1  110.5061668 +1 -110.4597243 +1    21    15    12
  H(HETATM   49 1H20 HET A   1)   1.09374944 +1  112.3946627 +1   -3.1926255 +1    23    20    16
  H(HETATM   50 2H20 HET A   1)   1.09549784 +1  110.1872526 +1 -123.3414990 +1    23    20    16
  H(HETATM   51 3H20 HET A   1)   1.09464289 +1  110.2311034 +1  117.5354810 +1    23    20    16

 XPARAM 
  1  1    0.0008  1  2   -0.0113  1  3    0.0066  2  1    7.4315  2  2   -0.0114
  2  3   -0.0071  3  1    2.3122  3  2    2.4289  3  3   -0.0039  4  1    1.4302
  4  2    1.4353  4  3    2.1108  5  1    1.4318  5  2    0.4118  5  3    2.7741
  6  1    1.5300  6  2    1.9873  6  3    4.6084  7  1    1.5238  7  2    2.0022
  7  3    1.9149  8  1    1.5240  8  2    1.9950  8  3    2.2560  9  1    1.5470
  9  2    1.9740  9  3    2.6788 10  1    1.5528 10  2    1.9738 10  3    4.0069
 11  1    1.5232 11  2    1.9761 11  3    5.1739 12  1    1.5197 12  2    1.9619
 12  3    5.0467 13  1    1.4717 13  2    0.4741 13  3    4.5101 14  1    1.4404
 14  2    2.0025 14  3    2.1284 15  1    1.4381 15  2    2.1279 15  3    4.5999
 16  1    1.5228 16  2    1.7885 16  3    1.8390 17  1    1.5191 17  2    1.9072
 17  3    3.0444 18  1    1.5146 18  2    2.0861 18  3    3.2485 19  1    1.5128
 19  2    2.0517 19  3    5.2334 20  1    1.3266 20  2    1.9418 20  3    0.0643
 21  1    1.5114 21  2    2.3372 21  3    6.2479 22  1    1.2070 22  2    0.4875
 22  3    5.5257 23  1    1.5120 23  2    2.2373 23  3    3.1396 24  1    1.0910
 24  2    1.9911 24  3    5.8353 25  1    1.0966 25  2    1.9167 25  3    0.5337
 26  1    1.0979 26  2    1.9020 26  3    4.7914 27  1    1.0956 27  2    1.9153
 27  3    1.8630 28  1    1.0990 28  2    1.9059 28  3    6.1142 29  1    1.0939
 29  2    1.9397 29  3    1.7976 30  1    1.0948 30  2    1.9250 30  3    3.8922
 31  1    1.0959 31  2    1.9402 31  3    5.9868 32  1    1.0963 32  2    1.8997
 32  3    2.9261 33  1    1.0958 33  2    1.9169 33  3    0.8996 34  1    1.0973
 34  2    1.8978 34  3    3.0530 35  1    1.0967 35  2    1.8958 35  3    1.0390
 36  1    1.0850 36  2    1.8434 36  3    1.4221 37  1    1.0978 37  2    1.8953
 37  3    3.8673 38  1    1.0849 38  2    2.2383 38  3    0.0041 39  1    1.0960
 39  2    1.9198 39  3    0.4992 40  1    1.0968 40  2    1.9251 40  3    2.5416
 41  1    1.0963 41  2    1.9000 41  3    0.8336 42  1    1.0953 42  2    1.9378
 42  3    2.8651 43  1    1.0950 43  2    1.9335 43  3    3.7880 44  1    1.0937
 44  2    1.9296 44  3    1.6919 45  1    1.0957 45  2    1.9427 45  3    5.8745
 46  1    1.0941 46  2    1.9361 46  3    2.2589 47  1    1.0930 47  2    1.9366
 47  3    0.1667 48  1    1.0950 48  2    1.9287 48  3    4.3553 49  1    1.0937
 49  2    1.9617 49  3    6.2275 50  1    1.0955 50  2    1.9231 50  3    4.1305
 51  1    1.0946 51  2    1.9239 51  3    2.0514
 grad
       0.00000    0.00000    0.00000    5.48259    0.00000    0.00000   22.07278   52.46523
       0.00000   32.70352  101.49793   44.80082   -8.49157  -66.32139    9.42209   20.52848
      44.38090   30.84825   11.20943  -16.20126   14.19377   15.21882   -0.61417    4.88638
      32.24842    4.98200  101.07472    2.22482   -4.03895   56.89304    2.53530   19.01908
      31.44959   21.18982   99.85144   18.70531   41.54741  -84.79016   39.08641  127.71436
     -48.29450   -5.56468  141.36826    0.45433  -16.76392   32.22223   81.21510  -55.87023
       8.85701  -21.64786   40.13661   27.59276    6.01737   41.07827   29.76140   -6.75473
      -2.44412  -26.73341   58.51238   -4.35391   34.23232   18.38918    1.48916  -10.33482
     -62.36484  -10.39660   34.50832  -12.49027    0.01363   -0.50283    0.13118    2.39757
      -6.52338    0.36259    0.07693   -5.88052    0.24807   -1.98095   -6.20990   -0.21317
       0.09415   -6.43091    1.05862   -1.14537   -1.11915   -0.87469    0.68106   -0.84852
      -1.20665    0.23611   -0.86292    0.22381   -0.50120   -7.03535    0.62870    2.01513
      -6.39676    0.00558   -0.74631   -6.56093   -1.17741    0.22492   -6.97448   -0.79505
      -1.03446    7.38988  -30.14691    0.90412   -4.56738   10.42120   -5.12781   10.17902
      11.99541   -1.96604   -3.37795   -6.00719    2.64068   -3.34452   -5.14373   -2.91466
      -5.51668   -4.40653    5.04303   -5.00770   -1.15059   -1.09287   -2.58963   -2.05560
      -0.31286   -2.62309   -0.74584    0.49777   -0.51067   -0.43807   -0.58839   -1.60469
       0.20464   -0.46449   -2.95938   -2.01646    0.38553   -1.37754    0.05370    0.11952
      -0.69706    1.30907   -0.21422   -2.61477   -0.62492    1.25022   -3.09073   -0.61393
      -0.99679
 CYCLE:     4 TIME:   0.031 TIME LEFT:  2.00D  GRAD.:   361.803 HEAT: -73.51553

          HESSIAN HAS  0 NEGATIVE EIGENVALUE(S)
  MIN SEARCH, CORRECT HESSIAN, TRYING PURE NR STEP
 LAMBDA THAT MINIMIZES ALONG ALL MODES =        0.000000000
 PURE NR-STEP HAS LENGTH   1.03681
 LAMBDA THAT MINIMIZES ALONG ALL MODES =     -167.273029744
 P-RFO-STEP   HAS LENGTH   0.60675
 LAMBDA THAT MINIMIZES ALONG ALL MODES =    -7777.731417500
 QA/TRIM-STEP HAS LENGTH   0.03536

  HEAT OF FORMATION       -77.879593887948431    
 PARAMETERS        0.002  -0.009   0.008   7.431  -0.012  -0.008   2.312   2.424
  -0.002   1.430   1.430   2.110   1.436   0.421   2.774   1.531   1.984   4.607

   1.524   2.008   1.912   1.525   1.996   2.257   1.547   1.974   2.675   1.556

   1.972   3.998   1.527   1.972   5.170   1.520   1.955   5.046   1.470   0.478

   4.510   1.428   2.011   2.130   1.424   2.128   4.602   1.522   1.779   1.844

   1.521   1.910   3.043   1.514   2.086   3.247   1.512   2.052   5.235   1.332

   1.937   0.066   1.511   2.334   6.249   1.211   0.494   5.528   1.511   2.239

   3.141   1.092   1.991   5.836   1.098   1.917   0.534   1.100   1.902   4.792

   1.097   1.916   1.863   1.101   1.905   6.115   1.095   1.940   1.798   1.096

   1.925   3.893   1.097   1.940   5.987   1.098   1.900   2.926   1.097   1.917

   0.900   1.099   1.898   3.053   1.098   1.896   1.040   1.085   1.848   1.422

   1.099   1.894   3.868   1.084   2.237   0.005   1.097   1.921   0.499   1.098

   1.926   2.542   1.098   1.901   0.834   1.097   1.938   2.866   1.096   1.934

   3.788   1.095   1.930   1.692   1.097   1.943   5.875   1.095   1.936   2.259

   1.094   1.937   0.167   1.096   1.929   4.356   1.095   1.961   6.228   1.097

   1.923   4.131   1.096   1.924   2.052
 GRADIENT          0.000   0.000   0.000 -26.470   0.000   0.000  15.704  23.476
   0.000 -44.302-246.937-129.391  31.725  85.137   3.287  -6.204 -93.412  36.373

   1.122  68.298 -64.003  14.886  -0.854   3.566 -29.798 -22.157-210.877  15.951

 -34.319-126.900  60.730 -53.667 -57.806  31.340-173.668  17.981  55.574  26.439

-129.782 128.098  48.914 -12.412 133.931   5.848  48.551   6.873  96.695  73.374

  20.917 -20.583 -65.507  41.405 -16.434 -53.066  29.091  -7.029  -2.364 -14.195

  27.261  -3.245  33.047  17.356   1.703   7.154 -43.162  -7.821  31.680  -9.420

   0.278  -0.778   0.623   1.698  -5.790   0.651   0.432  -4.665   0.183  -1.693

  -5.427  -0.057   0.586  -4.800   0.580  -0.302  -0.570  -0.924   0.683  -0.179

  -1.152   0.272  -0.150   0.210  -0.524  -5.874   0.351   1.885  -5.300  -0.254

  -0.477  -5.239  -1.210   0.090  -5.531  -1.127  -0.342   6.598 -28.738   0.749

 -10.384  14.700   1.805   0.878  23.206  -1.698  -7.396  -2.050  -1.786  -9.101

  -0.173   4.881 -10.789   0.143  -1.618  -8.956   1.839   3.188  -1.889  -1.876

  -0.007  -1.987  -0.749   0.334   0.071  -0.679  -0.572  -1.056   0.054  -0.437

  -2.369  -1.986   0.378  -0.780  -0.005   0.119  -0.084   1.007  -0.218  -2.008

  -0.686   1.291  -2.528  -0.636  -1.030
       HoF         ACTUAL,  PREDICTED ENERGY CHANGE, RATIO
   -77.8795939    -4.3640601         -10.2478559    0.4258510
     STEPSIZE USED IS  0.03536
 CALCULATED STEP
     0.001392  0.002373  0.001210 -0.000236 -0.000469 -0.001023 -0.000108 -0.004422
     0.001705 -0.000295 -0.005370 -0.000430  0.003918  0.009282 -0.000539  0.000977
    -0.002894 -0.001494  0.000407  0.006236 -0.002760  0.000588  0.000694  0.000890
    -0.000092  0.000001 -0.004285  0.002957 -0.001623 -0.009088  0.004077 -0.004338
    -0.003532  0.000611 -0.007196 -0.000286 -0.002029  0.003557 -0.000571 -0.012784
     0.008408  0.001773 -0.014332 -0.000057  0.002308 -0.001161 -0.009264  0.005283
     0.001567  0.002921 -0.001118 -0.000709 -0.000072 -0.001371 -0.000411  0.000260
     0.001849  0.004939 -0.005139  0.002081 -0.000598 -0.003345  0.001452  0.003580
     0.006926  0.002214 -0.001435  0.001758  0.001594  0.001048 -0.000208  0.000191
     0.001380  0.000368  0.000433  0.001615 -0.000119  0.000699  0.001432  0.000288
     0.000452  0.001790 -0.000392  0.000610  0.000806  0.000384  0.000373  0.000932
     0.000171  0.000428  0.001096 -0.000259  0.000524  0.001617  0.000064  0.000198
     0.001382  0.000389  0.000542  0.001571  0.000262  0.000422  0.001467  0.000456
     0.000592 -0.000272  0.004110  0.000335  0.001338 -0.001200  0.001187 -0.000751
    -0.000931  0.000764  0.001119  0.001063  0.000302  0.001286  0.000704  0.000610
     0.001420  0.000795  0.000023  0.001508  0.000178  0.000423  0.001135  0.000283
     0.000496  0.000980  0.000381  0.000395  0.001043 -0.000163  0.000534  0.000901
     0.000192  0.000518  0.000907  0.000722  0.000410  0.001034 -0.000043  0.000443
     0.001098 -0.000420  0.000491  0.001171  0.000072  0.000297  0.001069  0.000318
     0.000586
     NEW TRUST RADIUS =  0.03536
*REMARK   3 HET = Not identified; C 20 H 28 O 3      =    51 atoms res:    1
 PM7 CHARGE=0 EF NOXYZ PRNT=2 PDBOUT COMPFG GRAPHF
 6436805

  O(HETATM    1  O1  HET A   1)   0.00223370 +1   -0.0089727 +1    0.0078133 +1
  O(HETATM    2  O2  HET A   1)   7.43130084 +1   -0.6829082 +1   -0.4677565 +1     1     0     0
  O(HETATM    3  O3  HET A   1)   2.31213086 +1  138.9119555 +1   -0.1285349 +1     2     1     0
  C(HETATM    4  C1  HET A   1)   1.42991242 +1   81.9302623 +1  120.9170148 +1     1     2     3
  C(HETATM    5  C2  HET A   1)   1.43567820 +1   24.1261508 +1  158.9141890 +1     1     2     3
  C(HETATM    6  C3  HET A   1)   1.53096886 +1  113.6996672 +1  -96.0430469 +1     4     1     2
  C(HETATM    7  C4  HET A   1)   1.52421231 +1  115.0734258 +1  109.5599150 +1     5     1     2
  C(HETATM    8  C5  HET A   1)   1.52459215 +1  114.3429408 +1  129.3127081 +1     4     1     2
  C(HETATM    9  C6  HET A   1)   1.54695658 +1  113.0994016 +1  153.2406005 +1     6     4     1
  C(HETATM   10  C7  HET A   1)   1.55576441 +1  112.9999496 +1 -130.9427014 +1     7     5     1
  C(HETATM   11  C8  HET A   1)   1.52728608 +1  112.9719839 +1  -63.7575974 +1    10     7     5
  C(HETATM   12  C9  HET A   1)   1.52035651 +1  111.9966517 +1  -70.8600220 +1     9     6     4
  C(HETATM   13  C10 HET A   1)   1.46970960 +1   27.3658717 +1 -101.6245659 +1     2     1     3
  C(HETATM   14  C11 HET A   1)   1.42765354 +1  115.2154986 +1  122.0513439 +1    11    10     7
  C(HETATM   15  C12 HET A   1)   1.42378009 +1  121.9164062 +1  -96.3104878 +1    12     9     6
  C(HETATM   16  C13 HET A   1)   1.52168367 +1  101.9400856 +1  105.6678095 +1    13     2     1
  C(HETATM   17  C14 HET A   1)   1.52067047 +1  109.4401457 +1  174.3672882 +1    15    12     9
  C(HETATM   18  C15 HET A   1)   1.51391074 +1  119.5207646 +1 -173.9522436 +1    16    13     2
  C(HETATM   19  C16 HET A   1)   1.51239079 +1  117.5703329 +1  -60.0428154 +1    11    10     7
  C(HETATM   20  C17 HET A   1)   1.33157853 +1  110.9646125 +1    3.8056886 +1    16    13     2
  C(HETATM   21  C18 HET A   1)   1.51083272 +1  133.7181453 +1   -1.9378534 +1    15    12     9
  C(HETATM   22  C19 HET A   1)   1.21056307 +1   28.3308958 +1  -43.2735641 +1     3     2     1
  C(HETATM   23  C20 HET A   1)   1.51057930 +1  128.2881847 +1  179.9785976 +1    20    16    13
  H(HETATM   24  H2  HET A   1)   1.09209002 +1  114.0684409 +1  -25.6484187 +1     5     1     2
  H(HETATM   25 1H3  HET A   1)   1.09800976 +1  109.8407637 +1   30.6052507 +1     6     4     1
  H(HETATM   26 2H3  HET A   1)   1.09954310 +1  108.9709616 +1  -85.4342127 +1     6     4     1
  H(HETATM   27 1H4  HET A   1)   1.09703532 +1  109.7553843 +1  106.7663587 +1     7     5     1
  H(HETATM   28 2H4  HET A   1)   1.10080758 +1  109.1755079 +1   -9.6491231 +1     7     5     1
  H(HETATM   29 1H5  HET A   1)   1.09471512 +1  111.1593081 +1  103.0170683 +1     8     4     1
  H(HETATM   30 2H5  HET A   1)   1.09575811 +1  110.3028430 +1 -136.9710171 +1     8     4     1
  H(HETATM   31 3H5  HET A   1)   1.09697520 +1  111.1509294 +1  -16.9539756 +1     8     4     1
  H(HETATM   32 1H6  HET A   1)   1.09791220 +1  108.8495380 +1  167.6652329 +1     9     6     4
  H(HETATM   33 2H6  HET A   1)   1.09719299 +1  109.8518851 +1   51.5744823 +1     9     6     4
  H(HETATM   34 1H7  HET A   1)   1.09891731 +1  108.7482376 +1  174.9492535 +1    10     7     5
  H(HETATM   35 2H7  HET A   1)   1.09820195 +1  108.6473051 +1   59.5644260 +1    10     7     5
  H(HETATM   36  H9  HET A   1)   1.08471283 +1  105.8553469 +1   81.5021312 +1    12     9     6
  H(HETATM   37  H10 HET A   1)   1.09914830 +1  108.5229225 +1 -138.3535661 +1    13     2     1
  H(HETATM   38  H11 HET A   1)   1.08417493 +1  128.1893796 +1    0.2807532 +1    14    11    10
  H(HETATM   39 1H14 HET A   1)   1.09711683 +1  110.0568140 +1   28.6184708 +1    17    15    12
  H(HETATM   40 2H14 HET A   1)   1.09811378 +1  110.3383937 +1  145.6590595 +1    17    15    12
  H(HETATM   41 1H15 HET A   1)   1.09769244 +1  108.9074607 +1   47.7657315 +1    18    16    13
[...]
                                                       MOPAC v22.0.6 Linux
                                                       Sun Oct 12 20:23:43 2025




          FINAL HEAT OF FORMATION =       -107.06568 KCAL/MOL =    -447.96281 KJ/MOL


          COSMO AREA              =        332.38 SQUARE ANGSTROMS
          COSMO VOLUME            =        418.33 CUBIC ANGSTROMS

          GRADIENT NORM           =          0.94361          =       0.13213 PER ATOM
          IONIZATION POTENTIAL    =          9.679338 EV
          HOMO LUMO ENERGIES (EV) =         -9.679 -0.157
          NO. OF FILLED LEVELS    =         63
          MOLECULAR WEIGHT        =        316.4394         POINT GROUP:  C1  

          MOLECULAR DIMENSIONS (Angstroms)

            Atom       Atom       Distance
            H    50    H    29    11.38444
            H    48    H    34     8.50478
            H    43    H    51     4.86661


          SCF CALCULATIONS        =        151

          WALL-CLOCK TIME         =      4.320 SECONDS
          COMPUTATION TIME        =      4.210 SECONDS




  ATOM               CHEMICAL                 BOND LENGTH      BOND ANGLE     TWIST ANGLE 
 NUMBER               SYMBOL                  (ANGSTROMS)      (DEGREES)       (DEGREES) 
   (I)                                           NA:I           NB:NA:I       NC:NB:NA:I       NA    NB    NC 
     1       O(HETATM    1  O1  HET A   1)    0.67697043  *   -0.3295656  *   -0.3017821  *
     2       O(HETATM    2  O2  HET A   1)    7.19019179  *  -11.6464471  *  -16.2597520  *     1     0     0
     3       O(HETATM    3  O3  HET A   1)    2.23394066  *  136.9456709  *    5.8282114  *     2     1     0
     4       C(HETATM    4  C1  HET A   1)    1.43406175  *   89.0288103  *  130.8657176  *     1     2     3
     5       C(HETATM    5  C2  HET A   1)    1.43205429  *   30.8032204  *  162.1633802  *     1     2     3
     6       C(HETATM    6  C3  HET A   1)    1.51233557  *  114.0722559  *  -93.4194059  *     4     1     2
     7       C(HETATM    7  C4  HET A   1)    1.50783264  *  115.7774490  *  103.5352550  *     5     1     2
     8       C(HETATM    8  C5  HET A   1)    1.50320707  *  114.9102807  *  129.6253363  *     4     1     2
     9       C(HETATM    9  C6  HET A   1)    1.53797687  *  111.6531839  *  148.8618112  *     6     4     1
    10       C(HETATM   10  C7  HET A   1)    1.53502782  *  112.1047053  * -119.3100866  *     7     5     1
    11       C(HETATM   11  C8  HET A   1)    1.50108242  *  112.0940713  *  -63.7021216  *    10     7     5
    12       C(HETATM   12  C9  HET A   1)    1.49322301  *  110.0763164  *  -71.0902550  *     9     6     4
    13       C(HETATM   13  C10 HET A   1)    1.44586766  *   31.9509516  * -108.3976327  *     2     1     3
    14       C(HETATM   14  C11 HET A   1)    1.34027166  *  120.2913910  *  120.5773235  *    11    10     7
    15       C(HETATM   15  C12 HET A   1)    1.33920378  *  124.8888288  *  -94.2381917  *    12     9     6
    16       C(HETATM   16  C13 HET A   1)    1.52383522  *  104.7332164  *  105.0021991  *    13     2     1
    17       C(HETATM   17  C14 HET A   1)    1.50219732  *  120.2978835  *  175.9048603  *    15    12     9
    18       C(HETATM   18  C15 HET A   1)    1.47471191  *  121.0206883  * -175.1622255  *    16    13     2
    19       C(HETATM   19  C16 HET A   1)    1.49159897  *  116.2142579  *  -59.6809785  *    11    10     7
    20       C(HETATM   20  C17 HET A   1)    1.34470513  *  108.9390001  *    1.5690407  *    16    13     2
    21       C(HETATM   21  C18 HET A   1)    1.49088212  *  123.9082533  *   -2.8236625  *    15    12     9
    22       C(HETATM   22  C19 HET A   1)    1.19582639  *   32.5911260  *  -46.0510350  *     3     2     1
    23       C(HETATM   23  C20 HET A   1)    1.46909504  *  131.2335580  *  179.9059969  *    20    16    13
    24       H(HETATM   24  H2  HET A   1)    1.09592120  *  113.7129885  *  -33.5996909  *     5     1     2
    25       H(HETATM   25 1H3  HET A   1)    1.11029781  *  110.0032662  *   26.5692435  *     6     4     1
    26       H(HETATM   26 2H3  HET A   1)    1.10776581  *  109.8654980  *  -88.6865976  *     6     4     1
    27       H(HETATM   27 1H4  HET A   1)    1.10826959  *  109.8313451  *  117.6832026  *     7     5     1
    28       H(HETATM   28 2H4  HET A   1)    1.11156888  *  109.4571691  *    2.0615244  *     7     5     1
    29       H(HETATM   29 1H5  HET A   1)    1.09829108  *  111.6098256  *   94.9958673  *     8     4     1
    30       H(HETATM   30 2H5  HET A   1)    1.09702283  *  111.2879431  * -144.6201286  *     8     4     1
    31       H(HETATM   31 3H5  HET A   1)    1.09922281  *  111.6190261  *  -24.0403871  *     8     4     1
    32       H(HETATM   32 1H6  HET A   1)    1.10842995  *  109.5939747  *  165.9838909  *     9     6     4
    33       H(HETATM   33 2H6  HET A   1)    1.10885569  *  110.1040037  *   50.9405869  *     9     6     4
    34       H(HETATM   34 1H7  HET A   1)    1.11106269  *  109.7124899  *  174.5717820  *    10     7     5
    35       H(HETATM   35 2H7  HET A   1)    1.11106526  *  109.2522272  *   60.0694784  *    10     7     5
    36       H(HETATM   36  H9  HET A   1)    1.08932831  *  113.9839166  *   83.6141191  *    12     9     6
    37       H(HETATM   37  H10 HET A   1)    1.11202220  *  104.2843416  * -136.9325854  *    13     2     1
    38       H(HETATM   38  H11 HET A   1)    1.08997880  *  121.6636911  *    2.4698736  *    14    11    10
    39       H(HETATM   39 1H14 HET A   1)    1.10765617  *  110.8821089  *   22.7767361  *    17    15    12
    40       H(HETATM   40 2H14 HET A   1)    1.10722442  *  111.1820502  *  139.2886528  *    17    15    12
    41       H(HETATM   41 1H15 HET A   1)    1.11758918  *  108.8225945  *   60.0358733  *    18    16    13
    42       H(HETATM   42 2H15 HET A   1)    1.11010570  *  111.4504710  *  175.2432837  *    18    16    13
    43       H(HETATM   43 1H16 HET A   1)    1.10110602  *  111.7414910  * -133.8414573  *    19    11    10
    44       H(HETATM   44 2H16 HET A   1)    1.09976002  *  111.4056808  *  105.8758564  *    19    11    10
    45       H(HETATM   45 3H16 HET A   1)    1.09840666  *  112.6667569  *  -14.2629134  *    19    11    10
    46       H(HETATM   46 1H18 HET A   1)    1.09774344  *  112.6219378  *  160.2072149  *    21    15    12
    47       H(HETATM   47 2H18 HET A   1)    1.09951806  *  112.0982771  *   39.7105396  *    21    15    12
    48       H(HETATM   48 3H18 HET A   1)    1.10009557  *  110.8068120  *  -79.9471341  *    21    15    12
    49       H(HETATM   49 1H20 HET A   1)    1.09863971  *  112.9160864  *  -11.4367654  *    23    20    16
    50       H(HETATM   50 2H20 HET A   1)    1.10416040  *  111.4519168  * -132.3230549  *    23    20    16
    51       H(HETATM   51 3H20 HET A   1)    1.10413186  *  111.2931003  *  109.4290257  *    23    20    16

                             CARTESIAN COORDINATES

   1    O        0.676970430    -0.329565606    -0.301782150
   2    O        7.867162221    -0.329565606    -0.301782150
   3    O        9.499517598     1.195526778    -0.301782150
   4    C        0.701277270    -1.267720840    -1.386128518
   5    C        1.907006416    -1.027658956    -0.526407674
   6    C        0.629387022    -0.629811200    -2.755457533
   7    C        2.307492652    -2.011485336     0.543758522
   8    C       -0.157369873    -2.485701631    -1.188950016
   9    C        1.388857829    -1.456113659    -3.807028359
  10    C        3.653120754    -1.648966826     1.187323399
  11    C        4.784534930    -1.710033066     0.202731445
  12    C        2.860472107    -1.350053887    -3.577207324
  13    C        6.640341448    -0.571052316    -1.027818138
  14    C        5.522695103    -0.619655803    -0.047318733
  15    C        3.668637824    -0.469597236    -4.181468044
  16    C        6.513392451     0.612806431    -1.978836639
  17    C        5.120888453    -0.391726562    -3.805301800
  18    C        5.318343211     0.782240349    -2.826141004
  19    C        5.020590046    -3.030984602    -0.448599887
  20    C        7.582470195     1.413631138    -1.823967472
  21    C        3.215676082     0.496818788    -5.222426851
  22    C        8.458127137     0.834345196    -0.765521873
  23    C        7.954497821     2.671043821    -2.486348813
  24    H        2.713544450    -0.389076681    -0.904233494
  25    H        1.039949643     0.401043994    -2.716251190
  26    H       -0.429026034    -0.507930937    -3.058858419
  27    H        2.347588831    -3.034091516     0.118399403
  28    H        1.522345809    -2.043374315     1.329960089
  29    H       -1.146544292    -2.362193674    -1.649952236
  30    H        0.307564351    -3.376335214    -1.629480478
  31    H       -0.333109691    -2.689089666    -0.123098429
  32    H        1.111123962    -1.110433132    -4.822895387
  33    H        1.065172252    -2.515861343    -3.765514141
  34    H        3.862300981    -2.339083613     2.032570555
  35    H        3.577717743    -0.642490318     1.651850516
  36    H        3.242588639    -2.042060897    -2.827707884
  37    H        6.824153823    -1.525971261    -1.567203158
  38    H        5.352000466     0.319762249     0.478429154
  39    H        5.461913320    -1.341471194    -3.348585953
  40    H        5.759212944    -0.256858986    -4.699895836
  41    H        4.419383628     0.870849602    -2.168094170
  42    H        5.353577737     1.736950886    -3.391491315
  43    H        6.088155789    -3.300684091    -0.448777762
  44    H        4.679442780    -3.029661675    -1.494108804
  45    H        4.495568972    -3.852358209     0.057557663
  46    H        3.906502054     1.341249978    -5.343819194
  47    H        2.229474020     0.923555616    -4.989529573
  48    H        3.132979598     0.004815149    -6.202887957
  49    H        7.332368300     2.892379454    -3.364400412
  50    H        9.005574534     2.653908303    -2.824156897
  51    H        7.868277370     3.528570193    -1.796188169


           Empirical Formula: C20 H28 O3  =    51 atoms



      MOLECULAR POINT GROUP   :   C1  


                  EIGENVALUES  
 -32.05799 -31.75814 -30.86814 -29.99220 -29.75450 -28.71837 -27.91241 -27.24350
 -26.55115 -25.62810 -25.20348 -24.45190 -24.30928 -23.65588 -22.99928 -22.33367
 -21.46431 -20.29543 -19.67925 -18.92720 -18.84254 -18.44312 -18.00509 -17.18832
 -16.85111 -16.45977 -16.28404 -16.08324 -15.71384 -15.54298 -15.50388 -15.24338
 -15.10475 -14.81751 -14.68885 -14.63273 -14.39566 -14.26402 -14.05835 -13.76221
 -13.69803 -13.58447 -13.54136 -13.43092 -13.36781 -13.25433 -13.18699 -13.00797
 -12.91978 -12.73871 -12.57978 -12.23818 -12.01658 -11.96163 -11.72488 -11.68173
 -11.01489 -10.77635 -10.48949 -10.35906 -10.09353  -9.90010  -9.67934  -0.15653
   0.48763   0.85136   1.79428   2.02373   2.35311   2.59043   2.83506   3.09742
   3.46662   3.51976   3.54682   3.74975   3.83510   3.89609   4.06575   4.15255
   4.18683   4.26512   4.29436   4.35157   4.39960   4.50262   4.69593   4.74846
   4.84141   5.01058   5.08682   5.16688   5.20121   5.27199   5.35700   5.38496
   5.40570   5.42466   5.44067   5.45067   5.46346   5.52712   5.52996   5.55083
   5.62553   5.72230   5.75628   5.93116   6.02674   6.09046   6.15274   6.18187
   6.18918   6.23383   6.26704   6.33213   6.60247   6.63761   6.65403   6.70110


              NET ATOMIC CHARGES AND DIPOLE CONTRIBUTIONS

  ATOM NO.                 TYPE                        CHARGE      No. of ELECS.   s-Pop       p-Pop       
    1          O(HETATM    1  O1  HET A   1)          -0.381038        6.3810     1.92161     4.45943
    2          O(HETATM    2  O2  HET A   1)          -0.400634        6.4006     1.88429     4.51634
    3          O(HETATM    3  O3  HET A   1)          -0.432027        6.4320     1.87544     4.55658
    4          C(HETATM    4  C1  HET A   1)           0.172054        3.8279     1.06992     2.75802
    5          C(HETATM    5  C2  HET A   1)          -0.004323        4.0043     1.09026     2.91406
    6          C(HETATM    6  C3  HET A   1)          -0.296971        4.2970     1.06186     3.23511
    7          C(HETATM    7  C4  HET A   1)          -0.286613        4.2866     1.05870     3.22792
    8          C(HETATM    8  C5  HET A   1)          -0.465998        4.4660     1.05370     3.41230
    9          C(HETATM    9  C6  HET A   1)          -0.260200        4.2602     1.05119     3.20901
   10          C(HETATM   10  C7  HET A   1)          -0.292188        4.2922     1.05869     3.23350
   11          C(HETATM   11  C8  HET A   1)           0.097166        3.9028     1.08003     2.82281
   12          C(HETATM   12  C9  HET A   1)          -0.216652        4.2167     1.08586     3.13079
   13          C(HETATM   13  C10 HET A   1)           0.101398        3.8986     1.08935     2.80925
   14          C(HETATM   14  C11 HET A   1)          -0.282769        4.2828     1.08367     3.19909
   15          C(HETATM   15  C12 HET A   1)           0.024676        3.9753     1.07310     2.90222
   16          C(HETATM   16  C13 HET A   1)          -0.015260        4.0153     1.09621     2.91905
   17          C(HETATM   17  C14 HET A   1)          -0.277994        4.2780     1.05796     3.22003
   18          C(HETATM   18  C15 HET A   1)          -0.267406        4.2674     1.05082     3.21659
   19          C(HETATM   19  C16 HET A   1)          -0.464916        4.4649     1.05031     3.41460
   20          C(HETATM   20  C17 HET A   1)          -0.146846        4.1468     1.07956     3.06728
   21          C(HETATM   21  C18 HET A   1)          -0.451468        4.4515     1.04863     3.40284
   22          C(HETATM   22  C19 HET A   1)           0.573190        3.4268     1.12179     2.30502
   23          C(HETATM   23  C20 HET A   1)          -0.418883        4.4189     1.04076     3.37812
   24          H(HETATM   24  H2  HET A   1)           0.158606        0.8414     0.84139
   25          H(HETATM   25 1H3  HET A   1)           0.161107        0.8389     0.83889
   26          H(HETATM   26 2H3  HET A   1)           0.151213        0.8488     0.84879
   27          H(HETATM   27 1H4  HET A   1)           0.148756        0.8512     0.85124
   28          H(HETATM   28 2H4  HET A   1)           0.161252        0.8387     0.83875
   29          H(HETATM   29 1H5  HET A   1)           0.159509        0.8405     0.84049
   30          H(HETATM   30 2H5  HET A   1)           0.154556        0.8454     0.84544
   31          H(HETATM   31 3H5  HET A   1)           0.163668        0.8363     0.83633
   32          H(HETATM   32 1H6  HET A   1)           0.144486        0.8555     0.85551
   33          H(HETATM   33 2H6  HET A   1)           0.143610        0.8564     0.85639
   34          H(HETATM   34 1H7  HET A   1)           0.156284        0.8437     0.84372
   35          H(HETATM   35 2H7  HET A   1)           0.159654        0.8403     0.84035
   36          H(HETATM   36  H9  HET A   1)           0.146399        0.8536     0.85360
   37          H(HETATM   37  H10 HET A   1)           0.153694        0.8463     0.84631
   38          H(HETATM   38  H11 HET A   1)           0.169355        0.8306     0.83065
   39          H(HETATM   39 1H14 HET A   1)           0.146752        0.8532     0.85325
   40          H(HETATM   40 2H14 HET A   1)           0.150688        0.8493     0.84931
   41          H(HETATM   41 1H15 HET A   1)           0.171617        0.8284     0.82838
   42          H(HETATM   42 2H15 HET A   1)           0.155457        0.8445     0.84454
   43          H(HETATM   43 1H16 HET A   1)           0.166591        0.8334     0.83341
   44          H(HETATM   44 2H16 HET A   1)           0.157848        0.8422     0.84215
   45          H(HETATM   45 3H16 HET A   1)           0.156502        0.8435     0.84350
   46          H(HETATM   46 1H18 HET A   1)           0.150785        0.8492     0.84922
   47          H(HETATM   47 2H18 HET A   1)           0.157858        0.8421     0.84214
   48          H(HETATM   48 3H18 HET A   1)           0.155931        0.8441     0.84407
   49          H(HETATM   49 1H20 HET A   1)           0.152675        0.8473     0.84732
   50          H(HETATM   50 2H20 HET A   1)           0.170251        0.8297     0.82975
   51          H(HETATM   51 3H20 HET A   1)           0.168598        0.8314     0.83140
 DIPOLE           X         Y         Z       TOTAL
 POINT-CHG.    -4.346    -2.419    -4.629     6.794
 HYBRID        -0.047     0.271     0.559     0.623
 SUM           -4.393    -2.147    -4.070     6.362


          ATOMIC ORBITAL ELECTRON POPULATIONS

                   Atom                  s        px        py        pz   
   O(HETATM    1  O1  HET A   1)   1.92161   1.34936   1.57821   1.53186
   O(HETATM    2  O2  HET A   1)   1.88429   1.40559   1.49600   1.61475
   O(HETATM    3  O3  HET A   1)   1.87544   1.29585   1.67083   1.58990
   C(HETATM    4  C1  HET A   1)   1.06992   0.98810   0.90233   0.86759
   C(HETATM    5  C2  HET A   1)   1.09026   0.89990   1.00339   1.01077
   C(HETATM    6  C3  HET A   1)   1.06186   1.13425   1.10304   0.99781
   C(HETATM    7  C4  HET A   1)   1.05870   1.05032   1.09239   1.08520
   C(HETATM    8  C5  HET A   1)   1.05370   1.13650   1.08653   1.18926
   C(HETATM    9  C6  HET A   1)   1.05119   1.00255   1.12159   1.08487
   C(HETATM   10  C7  HET A   1)   1.05869   0.98891   1.17670   1.06788
   C(HETATM   11  C8  HET A   1)   1.08003   0.94419   0.94922   0.92939
   C(HETATM   12  C9  HET A   1)   1.08586   0.99839   1.06160   1.07080
   C(HETATM   13  C10 HET A   1)   1.08935   0.83707   1.03651   0.93567
   C(HETATM   14  C11 HET A   1)   1.08367   1.03692   1.08281   1.07936
   C(HETATM   15  C12 HET A   1)   1.07310   0.96310   0.97008   0.96904
   C(HETATM   16  C13 HET A   1)   1.09621   0.97376   0.98040   0.96489
   C(HETATM   17  C14 HET A   1)   1.05796   1.03922   1.07855   1.10226
   C(HETATM   18  C15 HET A   1)   1.05082   1.06099   1.08488   1.07072
   C(HETATM   19  C16 HET A   1)   1.05031   1.18594   1.07391   1.15476
   C(HETATM   20  C17 HET A   1)   1.07956   1.01401   1.01637   1.03691
   C(HETATM   21  C18 HET A   1)   1.04863   1.17233   1.11829   1.11222
   C(HETATM   22  C19 HET A   1)   1.12179   0.78807   0.74572   0.77124
   C(HETATM   23  C20 HET A   1)   1.04076   1.17782   1.05517   1.14513
   H(HETATM   24  H2  HET A   1)   0.84139
   H(HETATM   25 1H3  HET A   1)   0.83889
   H(HETATM   26 2H3  HET A   1)   0.84879
   H(HETATM   27 1H4  HET A   1)   0.85124
   H(HETATM   28 2H4  HET A   1)   0.83875
   H(HETATM   29 1H5  HET A   1)   0.84049
   H(HETATM   30 2H5  HET A   1)   0.84544
   H(HETATM   31 3H5  HET A   1)   0.83633
   H(HETATM   32 1H6  HET A   1)   0.85551
   H(HETATM   33 2H6  HET A   1)   0.85639
   H(HETATM   34 1H7  HET A   1)   0.84372
   H(HETATM   35 2H7  HET A   1)   0.84035
   H(HETATM   36  H9  HET A   1)   0.85360
   H(HETATM   37  H10 HET A   1)   0.84631
   H(HETATM   38  H11 HET A   1)   0.83065
   H(HETATM   39 1H14 HET A   1)   0.85325
   H(HETATM   40 2H14 HET A   1)   0.84931
   H(HETATM   41 1H15 HET A   1)   0.82838
   H(HETATM   42 2H15 HET A   1)   0.84454
   H(HETATM   43 1H16 HET A   1)   0.83341
   H(HETATM   44 2H16 HET A   1)   0.84215
   H(HETATM   45 3H16 HET A   1)   0.84350
   H(HETATM   46 1H18 HET A   1)   0.84922
   H(HETATM   47 2H18 HET A   1)   0.84214
   H(HETATM   48 3H18 HET A   1)   0.84407
   H(HETATM   49 1H20 HET A   1)   0.84732
   H(HETATM   50 2H20 HET A   1)   0.82975
   H(HETATM   51 3H20 HET A   1)   0.83140

           DATA FOR GRAPH WRITTEN TO DISK

 **********************
 *                    *
 * JOB ENDED NORMALLY *
 *                    *
 **********************



 TOTAL JOB TIME:             4.34 SECONDS

 == MOPAC DONE ==
